
     Program PHONON v.7.2 starts on 10Sep2023 at 20:35:14 

     This program is part of the open-source Quantum ESPRESSO suite
     for quantum simulation of materials; please cite
         "P. Giannozzi et al., J. Phys.:Condens. Matter 21 395502 (2009);
         "P. Giannozzi et al., J. Phys.:Condens. Matter 29 465901 (2017);
         "P. Giannozzi et al., J. Chem. Phys. 152 154105 (2020);
          URL http://www.quantum-espresso.org", 
     in publications or presentations arising from this work. More details at
     http://www.quantum-espresso.org/quote

     Serial version
     6178 MiB available memory on the printing compute node when the environment starts

     Reading input from ph.in

     Reading xml data from directory:

     ./tmp/si.save/


     IMPORTANT: XC functional enforced from input :
     Exchange-correlation= PBESOL
                           (   1   4  10   8   0   0   0)
     Any further DFT definition will be discarded
     Please, verify this is what you really want


     G-vector sticks info
     --------------------
     sticks:   dense  smooth     PW     G-vecs:    dense   smooth      PW
     Sum         859     859    253                16889    16889    2741

     Using Slab Decomposition

     Reading collected, re-writing distributed wavefunctions in ./tmp/


     Dynamical matrices for ( 2, 2, 2)  uniform grid of q-points
     (   3 q-points):
       N         xq(1)         xq(2)         xq(3) 
       1   0.000000000   0.000000000   0.000000000
       2   0.500000000  -0.500000000   0.500000000
       3   0.000000000  -1.000000000   0.000000000
  autoval = -.1282E+01
     Irreps are as follows:

                     mode #   1
                     (  -0.45615  -0.00000   ) 
                     (  -0.31583  -0.00000   ) 
                     (   0.43838  -0.00000   ) 
                     (   0.45615  -0.00000   ) 
                     (   0.31583  -0.00000   ) 
                     (  -0.43838  -0.00000   ) 
  autoval = -.1282E+01
     Irreps are as follows:

                     mode #   2
                     (  -0.53597  -0.00000   ) 
                     (   0.19196   0.00000   ) 
                     (  -0.41939  -0.00000   ) 
                     (   0.53597   0.00000   ) 
                     (  -0.19196  -0.00000   ) 
                     (   0.41939   0.00000   ) 
  autoval = -.1282E+01
     Irreps are as follows:

                     mode #   3
                     (  -0.06832  -0.00000   ) 
                     (   0.60283   0.00000   ) 
                     (   0.36323   0.00000   ) 
                     (   0.06832   0.00000   ) 
                     (  -0.60283  -0.00000   ) 
                     (  -0.36323  -0.00000   ) 
  autoval = 0.4148E+01
     Irreps are as follows:

                     mode #   4
                     (  -0.39170  -0.00000   ) 
                     (   0.56576   0.00000   ) 
                     (   0.16275   0.00000   ) 
                     (  -0.39170  -0.00000   ) 
                     (   0.56576   0.00000   ) 
                     (   0.16275   0.00000   ) 
  autoval = 0.4148E+01
     Irreps are as follows:

                     mode #   5
                     (  -0.23124  -0.00000   ) 
                     (   0.03191  -0.00000   ) 
                     (  -0.66746  -0.00000   ) 
                     (  -0.23124  -0.00000   ) 
                     (   0.03191  -0.00000   ) 
                     (  -0.66746  -0.00000   ) 
  autoval = 0.4148E+01
     Irreps are as follows:

                     mode #   6
                     (  -0.54138  -0.00000   ) 
                     (  -0.42297  -0.00000   ) 
                     (   0.16734   0.00000   ) 
                     (  -0.54138  -0.00000   ) 
                     (  -0.42297  -0.00000   ) 
                     (   0.16734   0.00000   ) 
  autoval = -.5907E+01
     Irreps are as follows:

                     mode #   1
                     (  -0.40825  -0.00000   ) 
                     (   0.40825  -0.00000   ) 
                     (  -0.40825  -0.00000   ) 
                     (   0.40825  -0.00000   ) 
                     (  -0.40825  -0.00000   ) 
                     (   0.40825  -0.00000   ) 
  autoval = 0.8672E+00
     Irreps are as follows:

                     mode #   2
                     (  -0.40825  -0.00000   ) 
                     (   0.40825  -0.00000   ) 
                     (  -0.40825  -0.00000   ) 
                     (  -0.40825   0.00000   ) 
                     (   0.40825  -0.00000   ) 
                     (  -0.40825   0.00000   ) 
  autoval = 0.1031E+01
     Irreps are as follows:

                     mode #   3
                     (  -0.57378  -0.00000   ) 
                     (  -0.23136  -0.00000   ) 
                     (   0.34242  -0.00000   ) 
                     (   0.57378  -0.00000   ) 
                     (   0.23136  -0.00000   ) 
                     (  -0.34242  -0.00000   ) 
  autoval = 0.1031E+01
     Irreps are as follows:

                     mode #   4
                     (  -0.06412  -0.00000   ) 
                     (  -0.52897  -0.00000   ) 
                     (  -0.46485  -0.00000   ) 
                     (   0.06412   0.00000   ) 
                     (   0.52897   0.00000   ) 
                     (   0.46485   0.00000   ) 
  autoval = 0.5788E+01
     Irreps are as follows:

                     mode #   5
                     (  -0.46123  -0.00000   ) 
                     (  -0.53136  -0.00000   ) 
                     (  -0.07013  -0.00000   ) 
                     (  -0.46123  -0.00000   ) 
                     (  -0.53136  -0.00000   ) 
                     (  -0.07013  -0.00000   ) 
  autoval = 0.5788E+01
     Irreps are as follows:

                     mode #   6
                     (  -0.34727  -0.00000   ) 
                     (   0.22581   0.00000   ) 
                     (   0.57308   0.00000   ) 
                     (  -0.34727  -0.00000   ) 
                     (   0.22581   0.00000   ) 
                     (   0.57308   0.00000   ) 
  autoval = 0.4685E+00
     Irreps are as follows:

                     mode #   1
                     (  -0.14603   0.00000   ) 
                     (  -0.00000   0.00000   ) 
                     (  -0.69186   0.00000   ) 
                     (   0.69186  -0.00000   ) 
                     (   0.00000   0.00000   ) 
                     (   0.14603  -0.00000   ) 
  autoval = 0.4685E+00
     Irreps are as follows:

                     mode #   2
                     (  -0.69186  -0.00000   ) 
                     (  -0.00000  -0.00000   ) 
                     (   0.14603  -0.00000   ) 
                     (  -0.14603   0.00000   ) 
                     (  -0.00000   0.00000   ) 
                     (   0.69186   0.00000   ) 
  autoval = 0.7867E+00
     Irreps are as follows:

                     mode #   3
                     (   0.00000  -0.00000   ) 
                     (  -0.71372   0.00000   ) 
                     (   0.00000   0.00000   ) 
                     (  -0.00000  -0.00000   ) 
                     (   0.70043   0.00000   ) 
                     (  -0.00000   0.00000   ) 
  autoval = 0.7867E+00
     Irreps are as follows:

                     mode #   4
                     (   0.00000   0.00000   ) 
                     (  -0.70043  -0.00000   ) 
                     (  -0.00000   0.00000   ) 
                     (   0.00000   0.00000   ) 
                     (  -0.71372  -0.00000   ) 
                     (  -0.00000  -0.00000   ) 
  autoval = 0.3043E+01
     Irreps are as follows:

                     mode #   5
                     (  -0.00000   0.00000   ) 
                     (  -0.00000   0.00000   ) 
                     (  -0.70711   0.00000   ) 
                     (  -0.70711   0.00000   ) 
                     (  -0.00000   0.00000   ) 
                     (   0.00000   0.00000   ) 
  autoval = 0.3043E+01
     Irreps are as follows:

                     mode #   6
                     (  -0.70711  -0.00000   ) 
                     (   0.00000  -0.00000   ) 
                     (  -0.00000   0.00000   ) 
                     (   0.00000   0.00000   ) 
                     (   0.00000  -0.00000   ) 
                     (  -0.70711  -0.00000   ) 

     Saving dvscf to file. Distribute only q points, not irreducible represetations.

     Calculation of q =    0.0000000   0.0000000   0.0000000

     Phonons on a uniform grid                                                  

     bravais-lattice index     =            2
     lattice parameter (alat)  =      10.2640  a.u.
     unit-cell volume          =     270.3273 (a.u.)^3
     number of atoms/cell      =            2
     number of atomic types    =            1
     kinetic-energy cut-off    =      60.0000  Ry
     charge density cut-off    =     240.0000  Ry
     convergence threshold     =      1.0E-13
     beta                      =       0.7000
     number of iterations used =            4
     Exchange-correlation= PBESOL
                           (   1   4  10   8   0   0   0)


     celldm(1)=   10.26400  celldm(2)=    0.00000  celldm(3)=    0.00000
     celldm(4)=    0.00000  celldm(5)=    0.00000  celldm(6)=    0.00000

     crystal axes: (cart. coord. in units of alat)
               a(1) = ( -0.5000  0.0000  0.5000 )  
               a(2) = (  0.0000  0.5000  0.5000 )  
               a(3) = ( -0.5000  0.5000  0.0000 )  

     reciprocal axes: (cart. coord. in units 2 pi/alat)
               b(1) = ( -1.0000 -1.0000  1.0000 )  
               b(2) = (  1.0000  1.0000  1.0000 )  
               b(3) = ( -1.0000  1.0000 -1.0000 )  


     Atoms inside the unit cell: 

     Cartesian axes

     site n.  atom      mass           positions (alat units)
        1     Si  28.0850   tau(    1) = (    0.00000    0.00000    0.00000  )
        2     Si  28.0850   tau(    2) = (    0.25000    0.25000    0.25000  )

     Computing dynamical matrix for 
                    q = (   0.0000000   0.0000000   0.0000000 )

     49 Sym.Ops. (with q -> -q+G )

                                    s                        frac. trans.

      isym =  1     identity                                     

 cryst.   s( 1) = (     1          0          0      )
                  (     0          1          0      )
                  (     0          0          1      )

 cart.    s( 1) = (  1.0000000  0.0000000  0.0000000 )
                  (  0.0000000  1.0000000  0.0000000 )
                  (  0.0000000  0.0000000  1.0000000 )


      isym =  2     180 deg rotation - cart. axis [-1,0,1]       

 cryst.   s( 2) = (     1          0          0      )    f =(  0.2500000 )
                  (     1         -1          0      )       (  0.2500000 )
                  (     1          0         -1      )       (  0.2500000 )

 cart.    s( 2) = (  0.0000000  0.0000000 -1.0000000 )    f =( -0.2500000 )
                  (  0.0000000 -1.0000000  0.0000000 )       (  0.2500000 )
                  ( -1.0000000  0.0000000  0.0000000 )       (  0.2500000 )


      isym =  3     inversion                                    

 cryst.   s( 3) = (    -1          0          0      )    f =(  0.2500000 )
                  (     0         -1          0      )       (  0.2500000 )
                  (     0          0         -1      )       (  0.2500000 )

 cart.    s( 3) = ( -1.0000000  0.0000000  0.0000000 )    f =( -0.2500000 )
                  (  0.0000000 -1.0000000  0.0000000 )       (  0.2500000 )
                  (  0.0000000  0.0000000 -1.0000000 )       (  0.2500000 )


      isym =  4     inv. 180 deg rotation - cart. axis [-1,0,1]  

 cryst.   s( 4) = (    -1          0          0      )
                  (    -1          1          0      )
                  (    -1          0          1      )

 cart.    s( 4) = (  0.0000000  0.0000000  1.0000000 )
                  (  0.0000000  1.0000000  0.0000000 )
                  (  1.0000000  0.0000000  0.0000000 )


      isym =  5     180 deg rotation - cart. axis [1,0,0]        

 cryst.   s( 5) = (     0         -1          1      )
                  (     0         -1          0      )
                  (     1         -1          0      )

 cart.    s( 5) = (  1.0000000  0.0000000  0.0000000 )
                  (  0.0000000 -1.0000000  0.0000000 )
                  (  0.0000000  0.0000000 -1.0000000 )


      isym =  6     180 deg rotation - cart. axis [0,0,1]        

 cryst.   s( 6) = (     0          1         -1      )
                  (     1          0         -1      )
                  (     0          0         -1      )

 cart.    s( 6) = ( -1.0000000  0.0000000  0.0000000 )
                  (  0.0000000 -1.0000000  0.0000000 )
                  (  0.0000000  0.0000000  1.0000000 )


      isym =  7     inv. 180 deg rotation - cart. axis [0,0,1]   

 cryst.   s( 7) = (     0         -1          1      )    f =(  0.2500000 )
                  (    -1          0          1      )       (  0.2500000 )
                  (     0          0          1      )       (  0.2500000 )

 cart.    s( 7) = (  1.0000000  0.0000000  0.0000000 )    f =( -0.2500000 )
                  (  0.0000000  1.0000000  0.0000000 )       (  0.2500000 )
                  (  0.0000000  0.0000000 -1.0000000 )       (  0.2500000 )


      isym =  8     inv. 180 deg rotation - cart. axis [0,1,0]   

 cryst.   s( 8) = (     1          0          0      )    f =(  0.2500000 )
                  (     1          0         -1      )       (  0.2500000 )
                  (     1         -1          0      )       (  0.2500000 )

 cart.    s( 8) = (  1.0000000  0.0000000  0.0000000 )    f =( -0.2500000 )
                  (  0.0000000 -1.0000000  0.0000000 )       (  0.2500000 )
                  (  0.0000000  0.0000000  1.0000000 )       (  0.2500000 )


      isym =  9     inv. 180 deg rotation - cart. axis [1,0,0]   

 cryst.   s( 9) = (     0          1         -1      )    f =(  0.2500000 )
                  (     0          1          0      )       (  0.2500000 )
                  (    -1          1          0      )       (  0.2500000 )

 cart.    s( 9) = ( -1.0000000  0.0000000  0.0000000 )    f =( -0.2500000 )
                  (  0.0000000  1.0000000  0.0000000 )       (  0.2500000 )
                  (  0.0000000  0.0000000  1.0000000 )       (  0.2500000 )


      isym = 10     inv. 180 deg rotation - cart. axis [1,0,1]   

 cryst.   s(10) = (     1          0          0      )
                  (     0          0          1      )
                  (     0          1          0      )

 cart.    s(10) = (  0.0000000  0.0000000 -1.0000000 )
                  (  0.0000000  1.0000000  0.0000000 )
                  ( -1.0000000  0.0000000  0.0000000 )


      isym = 11     180 deg rotation - cart. axis [1,0,1]        

 cryst.   s(11) = (    -1          0          0      )    f =(  0.2500000 )
                  (     0          0         -1      )       (  0.2500000 )
                  (     0         -1          0      )       (  0.2500000 )

 cart.    s(11) = (  0.0000000  0.0000000  1.0000000 )    f =( -0.2500000 )
                  (  0.0000000 -1.0000000  0.0000000 )       (  0.2500000 )
                  (  1.0000000  0.0000000  0.0000000 )       (  0.2500000 )


      isym = 12     inv.  90 deg rotation - cart. axis [0,1,0]   

 cryst.   s(12) = (     0         -1          1      )
                  (     1         -1          0      )
                  (     0         -1          0      )

 cart.    s(12) = (  0.0000000  0.0000000 -1.0000000 )
                  (  0.0000000 -1.0000000  0.0000000 )
                  (  1.0000000  0.0000000  0.0000000 )


      isym = 13     inv.  90 deg rotation - cart. axis [0,-1,0]  

 cryst.   s(13) = (     0          1         -1      )
                  (     0          0         -1      )
                  (     1          0         -1      )

 cart.    s(13) = (  0.0000000  0.0000000  1.0000000 )
                  (  0.0000000 -1.0000000  0.0000000 )
                  ( -1.0000000  0.0000000  0.0000000 )


      isym = 14     180 deg rotation - cart. axis [0,1,0]        

 cryst.   s(14) = (    -1          0          0      )
                  (    -1          0          1      )
                  (    -1          1          0      )

 cart.    s(14) = ( -1.0000000  0.0000000  0.0000000 )
                  (  0.0000000  1.0000000  0.0000000 )
                  (  0.0000000  0.0000000 -1.0000000 )


      isym = 15      90 deg rotation - cart. axis [0,1,0]        

 cryst.   s(15) = (     0          1         -1      )    f =(  0.2500000 )
                  (    -1          1          0      )       (  0.2500000 )
                  (     0          1          0      )       (  0.2500000 )

 cart.    s(15) = (  0.0000000  0.0000000  1.0000000 )    f =( -0.2500000 )
                  (  0.0000000  1.0000000  0.0000000 )       (  0.2500000 )
                  ( -1.0000000  0.0000000  0.0000000 )       (  0.2500000 )


      isym = 16      90 deg rotation - cart. axis [0,-1,0]       

 cryst.   s(16) = (     0         -1          1      )    f =(  0.2500000 )
                  (     0          0          1      )       (  0.2500000 )
                  (    -1          0          1      )       (  0.2500000 )

 cart.    s(16) = (  0.0000000  0.0000000 -1.0000000 )    f =( -0.2500000 )
                  (  0.0000000  1.0000000  0.0000000 )       (  0.2500000 )
                  (  1.0000000  0.0000000  0.0000000 )       (  0.2500000 )


      isym = 17     120 deg rotation - cart. axis [-1,-1,-1]     

 cryst.   s(17) = (    -1          0          1      )
                  (    -1          1          0      )
                  (    -1          0          0      )

 cart.    s(17) = (  0.0000000  1.0000000  0.0000000 )
                  (  0.0000000  0.0000000  1.0000000 )
                  (  1.0000000  0.0000000  0.0000000 )


      isym = 18     120 deg rotation - cart. axis [-1,1,1]       

 cryst.   s(18) = (     0          1          0      )
                  (     0          0          1      )
                  (     1          0          0      )

 cart.    s(18) = (  0.0000000 -1.0000000  0.0000000 )
                  (  0.0000000  0.0000000  1.0000000 )
                  ( -1.0000000  0.0000000  0.0000000 )


      isym = 19     120 deg rotation - cart. axis [1,1,-1]       

 cryst.   s(19) = (     1          0         -1      )
                  (     0          0         -1      )
                  (     0          1         -1      )

 cart.    s(19) = (  0.0000000  1.0000000  0.0000000 )
                  (  0.0000000  0.0000000 -1.0000000 )
                  ( -1.0000000  0.0000000  0.0000000 )


      isym = 20     120 deg rotation - cart. axis [-1,1,-1]      

 cryst.   s(20) = (    -1          1          0      )
                  (    -1          0          0      )
                  (    -1          0          1      )

 cart.    s(20) = (  0.0000000  0.0000000  1.0000000 )
                  ( -1.0000000  0.0000000  0.0000000 )
                  (  0.0000000 -1.0000000  0.0000000 )


      isym = 21     120 deg rotation - cart. axis [1,1,1]        

 cryst.   s(21) = (     0          0         -1      )
                  (     0          1         -1      )
                  (     1          0         -1      )

 cart.    s(21) = (  0.0000000  0.0000000  1.0000000 )
                  (  1.0000000  0.0000000  0.0000000 )
                  (  0.0000000  1.0000000  0.0000000 )


      isym = 22     180 deg rotation - cart. axis [1,-1,0]       

 cryst.   s(22) = (    -1          0          1      )    f =(  0.2500000 )
                  (     0         -1          1      )       (  0.2500000 )
                  (     0          0          1      )       (  0.2500000 )

 cart.    s(22) = (  0.0000000 -1.0000000  0.0000000 )    f =( -0.2500000 )
                  ( -1.0000000  0.0000000  0.0000000 )       (  0.2500000 )
                  (  0.0000000  0.0000000 -1.0000000 )       (  0.2500000 )


      isym = 23     120 deg rotation - cart. axis [1,-1,-1]      

 cryst.   s(23) = (     0          0          1      )
                  (     1          0          0      )
                  (     0          1          0      )

 cart.    s(23) = (  0.0000000  0.0000000 -1.0000000 )
                  ( -1.0000000  0.0000000  0.0000000 )
                  (  0.0000000  1.0000000  0.0000000 )


      isym = 24     120 deg rotation - cart. axis [-1,-1,1]      

 cryst.   s(24) = (     1         -1          0      )
                  (     0         -1          1      )
                  (     0         -1          0      )

 cart.    s(24) = (  0.0000000  0.0000000 -1.0000000 )
                  (  1.0000000  0.0000000  0.0000000 )
                  (  0.0000000 -1.0000000  0.0000000 )


      isym = 25      90 deg rotation - cart. axis [0,0,-1]       

 cryst.   s(25) = (     0          1          0      )    f =(  0.2500000 )
                  (     0          1         -1      )       (  0.2500000 )
                  (    -1          1          0      )       (  0.2500000 )

 cart.    s(25) = (  0.0000000  1.0000000  0.0000000 )    f =( -0.2500000 )
                  ( -1.0000000  0.0000000  0.0000000 )       (  0.2500000 )
                  (  0.0000000  0.0000000  1.0000000 )       (  0.2500000 )


      isym = 26     180 deg rotation - cart. axis [1,1,0]        

 cryst.   s(26) = (     0         -1          0      )    f =(  0.2500000 )
                  (    -1          0          0      )       (  0.2500000 )
                  (     0          0         -1      )       (  0.2500000 )

 cart.    s(26) = (  0.0000000  1.0000000  0.0000000 )    f =( -0.2500000 )
                  (  1.0000000  0.0000000  0.0000000 )       (  0.2500000 )
                  (  0.0000000  0.0000000 -1.0000000 )       (  0.2500000 )


      isym = 27     inv. 180 deg rotation - cart. axis [1,1,0]   

 cryst.   s(27) = (     0          1          0      )
                  (     1          0          0      )
                  (     0          0          1      )

 cart.    s(27) = (  0.0000000 -1.0000000  0.0000000 )
                  ( -1.0000000  0.0000000  0.0000000 )
                  (  0.0000000  0.0000000  1.0000000 )


      isym = 28     180 deg rotation - cart. axis [0,1,1]        

 cryst.   s(28) = (    -1          1          0      )    f =(  0.2500000 )
                  (     0          1          0      )       (  0.2500000 )
                  (     0          1         -1      )       (  0.2500000 )

 cart.    s(28) = ( -1.0000000  0.0000000  0.0000000 )    f =( -0.2500000 )
                  (  0.0000000  0.0000000  1.0000000 )       (  0.2500000 )
                  (  0.0000000  1.0000000  0.0000000 )       (  0.2500000 )


      isym = 29      90 deg rotation - cart. axis [0,0,1]        

 cryst.   s(29) = (     1          0         -1      )    f =(  0.2500000 )
                  (     1          0          0      )       (  0.2500000 )
                  (     1         -1          0      )       (  0.2500000 )

 cart.    s(29) = (  0.0000000 -1.0000000  0.0000000 )    f =( -0.2500000 )
                  (  1.0000000  0.0000000  0.0000000 )       (  0.2500000 )
                  (  0.0000000  0.0000000  1.0000000 )       (  0.2500000 )


      isym = 30     inv. 180 deg rotation - cart. axis [1,-1,0]  

 cryst.   s(30) = (     1          0         -1      )
                  (     0          1         -1      )
                  (     0          0         -1      )

 cart.    s(30) = (  0.0000000  1.0000000  0.0000000 )
                  (  1.0000000  0.0000000  0.0000000 )
                  (  0.0000000  0.0000000  1.0000000 )


      isym = 31     inv.  90 deg rotation - cart. axis [0,0,-1]  

 cryst.   s(31) = (     0         -1          0      )
                  (     0         -1          1      )
                  (     1         -1          0      )

 cart.    s(31) = (  0.0000000 -1.0000000  0.0000000 )
                  (  1.0000000  0.0000000  0.0000000 )
                  (  0.0000000  0.0000000 -1.0000000 )


      isym = 32     inv.  90 deg rotation - cart. axis [0,0,1]   

 cryst.   s(32) = (    -1          0          1      )
                  (    -1          0          0      )
                  (    -1          1          0      )

 cart.    s(32) = (  0.0000000  1.0000000  0.0000000 )
                  ( -1.0000000  0.0000000  0.0000000 )
                  (  0.0000000  0.0000000 -1.0000000 )


      isym = 33     inv. 180 deg rotation - cart. axis [0,1,1]   

 cryst.   s(33) = (     1         -1          0      )
                  (     0         -1          0      )
                  (     0         -1          1      )

 cart.    s(33) = (  1.0000000  0.0000000  0.0000000 )
                  (  0.0000000  0.0000000 -1.0000000 )
                  (  0.0000000 -1.0000000  0.0000000 )


      isym = 34     inv. 120 deg rotation - cart. axis [1,-1,1]  

 cryst.   s(34) = (     0          1          0      )    f =(  0.2500000 )
                  (    -1          1          0      )       (  0.2500000 )
                  (     0          1         -1      )       (  0.2500000 )

 cart.    s(34) = (  0.0000000  1.0000000  0.0000000 )    f =( -0.2500000 )
                  (  0.0000000  0.0000000  1.0000000 )       (  0.2500000 )
                  ( -1.0000000  0.0000000  0.0000000 )       (  0.2500000 )


      isym = 35     inv. 120 deg rotation - cart. axis [-1,1,-1] 

 cryst.   s(35) = (     1         -1          0      )    f =(  0.2500000 )
                  (     1          0          0      )       (  0.2500000 )
                  (     1          0         -1      )       (  0.2500000 )

 cart.    s(35) = (  0.0000000  0.0000000 -1.0000000 )    f =( -0.2500000 )
                  (  1.0000000  0.0000000  0.0000000 )       (  0.2500000 )
                  (  0.0000000  1.0000000  0.0000000 )       (  0.2500000 )


      isym = 36     120 deg rotation - cart. axis [1,-1,1]       

 cryst.   s(36) = (     0         -1          0      )
                  (     1         -1          0      )
                  (     0         -1          1      )

 cart.    s(36) = (  0.0000000 -1.0000000  0.0000000 )
                  (  0.0000000  0.0000000 -1.0000000 )
                  (  1.0000000  0.0000000  0.0000000 )


      isym = 37     180 deg rotation - cart. axis [0,1,-1]       

 cryst.   s(37) = (     0          0         -1      )    f =(  0.2500000 )
                  (     0         -1          0      )       (  0.2500000 )
                  (    -1          0          0      )       (  0.2500000 )

 cart.    s(37) = ( -1.0000000  0.0000000  0.0000000 )    f =( -0.2500000 )
                  (  0.0000000  0.0000000 -1.0000000 )       (  0.2500000 )
                  (  0.0000000 -1.0000000  0.0000000 )       (  0.2500000 )


      isym = 38     inv. 180 deg rotation - cart. axis [0,1,-1]  

 cryst.   s(38) = (     0          0          1      )
                  (     0          1          0      )
                  (     1          0          0      )

 cart.    s(38) = (  1.0000000  0.0000000  0.0000000 )
                  (  0.0000000  0.0000000  1.0000000 )
                  (  0.0000000  1.0000000  0.0000000 )


      isym = 39     inv.  90 deg rotation - cart. axis [-1,0,0]  

 cryst.   s(39) = (     0          0         -1      )
                  (     1          0         -1      )
                  (     0          1         -1      )

 cart.    s(39) = ( -1.0000000  0.0000000  0.0000000 )
                  (  0.0000000  0.0000000 -1.0000000 )
                  (  0.0000000  1.0000000  0.0000000 )


      isym = 40     inv.  90 deg rotation - cart. axis [1,0,0]   

 cryst.   s(40) = (    -1          1          0      )
                  (    -1          0          1      )
                  (    -1          0          0      )

 cart.    s(40) = ( -1.0000000  0.0000000  0.0000000 )
                  (  0.0000000  0.0000000  1.0000000 )
                  (  0.0000000 -1.0000000  0.0000000 )


      isym = 41     inv. 120 deg rotation - cart. axis [-1,-1,-1]

 cryst.   s(41) = (     1          0         -1      )    f =(  0.2500000 )
                  (     1         -1          0      )       (  0.2500000 )
                  (     1          0          0      )       (  0.2500000 )

 cart.    s(41) = (  0.0000000 -1.0000000  0.0000000 )    f =( -0.2500000 )
                  (  0.0000000  0.0000000 -1.0000000 )       (  0.2500000 )
                  ( -1.0000000  0.0000000  0.0000000 )       (  0.2500000 )


      isym = 42     inv. 120 deg rotation - cart. axis [-1,1,1]  

 cryst.   s(42) = (     0         -1          0      )    f =(  0.2500000 )
                  (     0          0         -1      )       (  0.2500000 )
                  (    -1          0          0      )       (  0.2500000 )

 cart.    s(42) = (  0.0000000  1.0000000  0.0000000 )    f =( -0.2500000 )
                  (  0.0000000  0.0000000 -1.0000000 )       (  0.2500000 )
                  (  1.0000000  0.0000000  0.0000000 )       (  0.2500000 )


      isym = 43     inv. 120 deg rotation - cart. axis [1,1,-1]  

 cryst.   s(43) = (    -1          0          1      )    f =(  0.2500000 )
                  (     0          0          1      )       (  0.2500000 )
                  (     0         -1          1      )       (  0.2500000 )

 cart.    s(43) = (  0.0000000 -1.0000000  0.0000000 )    f =( -0.2500000 )
                  (  0.0000000  0.0000000  1.0000000 )       (  0.2500000 )
                  (  1.0000000  0.0000000  0.0000000 )       (  0.2500000 )


      isym = 44      90 deg rotation - cart. axis [-1,0,0]       

 cryst.   s(44) = (     0          0          1      )    f =(  0.2500000 )
                  (    -1          0          1      )       (  0.2500000 )
                  (     0         -1          1      )       (  0.2500000 )

 cart.    s(44) = (  1.0000000  0.0000000  0.0000000 )    f =( -0.2500000 )
                  (  0.0000000  0.0000000  1.0000000 )       (  0.2500000 )
                  (  0.0000000 -1.0000000  0.0000000 )       (  0.2500000 )


      isym = 45     inv. 120 deg rotation - cart. axis [1,1,1]   

 cryst.   s(45) = (     0          0          1      )    f =(  0.2500000 )
                  (     0         -1          1      )       (  0.2500000 )
                  (    -1          0          1      )       (  0.2500000 )

 cart.    s(45) = (  0.0000000  0.0000000 -1.0000000 )    f =( -0.2500000 )
                  ( -1.0000000  0.0000000  0.0000000 )       (  0.2500000 )
                  (  0.0000000 -1.0000000  0.0000000 )       (  0.2500000 )


      isym = 46      90 deg rotation - cart. axis [1,0,0]        

 cryst.   s(46) = (     1         -1          0      )    f =(  0.2500000 )
                  (     1          0         -1      )       (  0.2500000 )
                  (     1          0          0      )       (  0.2500000 )

 cart.    s(46) = (  1.0000000  0.0000000  0.0000000 )    f =( -0.2500000 )
                  (  0.0000000  0.0000000 -1.0000000 )       (  0.2500000 )
                  (  0.0000000  1.0000000  0.0000000 )       (  0.2500000 )


      isym = 47     inv. 120 deg rotation - cart. axis [1,-1,-1] 

 cryst.   s(47) = (     0          0         -1      )    f =(  0.2500000 )
                  (    -1          0          0      )       (  0.2500000 )
                  (     0         -1          0      )       (  0.2500000 )

 cart.    s(47) = (  0.0000000  0.0000000  1.0000000 )    f =( -0.2500000 )
                  (  1.0000000  0.0000000  0.0000000 )       (  0.2500000 )
                  (  0.0000000 -1.0000000  0.0000000 )       (  0.2500000 )


      isym = 48     inv. 120 deg rotation - cart. axis [-1,-1,1] 

 cryst.   s(48) = (    -1          1          0      )    f =(  0.2500000 )
                  (     0          1         -1      )       (  0.2500000 )
                  (     0          1          0      )       (  0.2500000 )

 cart.    s(48) = (  0.0000000  0.0000000  1.0000000 )    f =( -0.2500000 )
                  ( -1.0000000  0.0000000  0.0000000 )       (  0.2500000 )
                  (  0.0000000  1.0000000  0.0000000 )       (  0.2500000 )


     This transformation sends q -> -q+G

      isym = 49     identity                                     

 cryst.   s(49) = (     1          0          0      )
                  (     0          1          0      )
                  (     0          0          1      )

 cart.    s(49) = (  1.0000000  0.0000000  0.0000000 )
                  (  0.0000000  1.0000000  0.0000000 )
                  (  0.0000000  0.0000000  1.0000000 )


     G cutoff =  640.4494  (  16889 G-vectors)     FFT grid: ( 36, 36, 36)
     number of k points=    29
                       cart. coord. in units 2pi/alat
        k(    1) = (   0.0000000   0.0000000   0.0000000), wk =   0.0039062
        k(    2) = (  -0.1250000   0.1250000  -0.1250000), wk =   0.0312500
        k(    3) = (  -0.2500000   0.2500000  -0.2500000), wk =   0.0312500
        k(    4) = (  -0.3750000   0.3750000  -0.3750000), wk =   0.0312500
        k(    5) = (   0.5000000  -0.5000000   0.5000000), wk =   0.0156250
        k(    6) = (   0.0000000   0.2500000   0.0000000), wk =   0.0234375
        k(    7) = (  -0.1250000   0.3750000  -0.1250000), wk =   0.0937500
        k(    8) = (  -0.2500000   0.5000000  -0.2500000), wk =   0.0937500
        k(    9) = (   0.6250000  -0.3750000   0.6250000), wk =   0.0937500
        k(   10) = (   0.5000000  -0.2500000   0.5000000), wk =   0.0937500
        k(   11) = (   0.3750000  -0.1250000   0.3750000), wk =   0.0937500
        k(   12) = (   0.2500000   0.0000000   0.2500000), wk =   0.0468750
        k(   13) = (   0.0000000   0.5000000   0.0000000), wk =   0.0234375
        k(   14) = (  -0.1250000   0.6250000  -0.1250000), wk =   0.0937500
        k(   15) = (   0.7500000  -0.2500000   0.7500000), wk =   0.0937500
        k(   16) = (   0.6250000  -0.1250000   0.6250000), wk =   0.0937500
        k(   17) = (   0.5000000   0.0000000   0.5000000), wk =   0.0468750
        k(   18) = (   0.0000000   0.7500000   0.0000000), wk =   0.0234375
        k(   19) = (   0.8750000  -0.1250000   0.8750000), wk =   0.0937500
        k(   20) = (   0.7500000   0.0000000   0.7500000), wk =   0.0468750
        k(   21) = (   0.0000000  -1.0000000   0.0000000), wk =   0.0117188
        k(   22) = (  -0.2500000   0.5000000   0.0000000), wk =   0.0937500
        k(   23) = (   0.6250000  -0.3750000   0.8750000), wk =   0.1875000
        k(   24) = (   0.5000000  -0.2500000   0.7500000), wk =   0.0937500
        k(   25) = (   0.7500000  -0.2500000   1.0000000), wk =   0.0937500
        k(   26) = (   0.6250000  -0.1250000   0.8750000), wk =   0.1875000
        k(   27) = (   0.5000000   0.0000000   0.7500000), wk =   0.0937500
        k(   28) = (  -0.2500000  -1.0000000   0.0000000), wk =   0.0468750
        k(   29) = (  -0.5000000  -1.0000000   0.0000000), wk =   0.0234375

                       cryst. coord.
        k(    1) = (   0.0000000   0.0000000   0.0000000), wk =   0.0039062
        k(    2) = (   0.0000000   0.0000000   0.1250000), wk =   0.0312500
        k(    3) = (   0.0000000   0.0000000   0.2500000), wk =   0.0312500
        k(    4) = (   0.0000000   0.0000000   0.3750000), wk =   0.0312500
        k(    5) = (   0.0000000   0.0000000  -0.5000000), wk =   0.0156250
        k(    6) = (   0.0000000   0.1250000   0.1250000), wk =   0.0234375
        k(    7) = (   0.0000000   0.1250000   0.2500000), wk =   0.0937500
        k(    8) = (   0.0000000   0.1250000   0.3750000), wk =   0.0937500
        k(    9) = (   0.0000000   0.1250000  -0.5000000), wk =   0.0937500
        k(   10) = (   0.0000000   0.1250000  -0.3750000), wk =   0.0937500
        k(   11) = (   0.0000000   0.1250000  -0.2500000), wk =   0.0937500
        k(   12) = (   0.0000000   0.1250000  -0.1250000), wk =   0.0468750
        k(   13) = (   0.0000000   0.2500000   0.2500000), wk =   0.0234375
        k(   14) = (   0.0000000   0.2500000   0.3750000), wk =   0.0937500
        k(   15) = (   0.0000000   0.2500000  -0.5000000), wk =   0.0937500
        k(   16) = (   0.0000000   0.2500000  -0.3750000), wk =   0.0937500
        k(   17) = (   0.0000000   0.2500000  -0.2500000), wk =   0.0468750
        k(   18) = (   0.0000000   0.3750000   0.3750000), wk =   0.0234375
        k(   19) = (   0.0000000   0.3750000  -0.5000000), wk =   0.0937500
        k(   20) = (   0.0000000   0.3750000  -0.3750000), wk =   0.0468750
        k(   21) = (   0.0000000  -0.5000000  -0.5000000), wk =   0.0117188
        k(   22) = (   0.1250000   0.2500000   0.3750000), wk =   0.0937500
        k(   23) = (   0.1250000   0.2500000  -0.5000000), wk =   0.1875000
        k(   24) = (   0.1250000   0.2500000  -0.3750000), wk =   0.0937500
        k(   25) = (   0.1250000   0.3750000  -0.5000000), wk =   0.0937500
        k(   26) = (   0.1250000   0.3750000  -0.3750000), wk =   0.1875000
        k(   27) = (   0.1250000   0.3750000  -0.2500000), wk =   0.0937500
        k(   28) = (   0.1250000  -0.5000000  -0.3750000), wk =   0.0468750
        k(   29) = (   0.2500000  -0.5000000  -0.2500000), wk =   0.0234375

     PseudoPot. # 1 for Si read from file:
     ../pseudo/Si_DOJO_PBEsol.upf
     MD5 check sum: 634e5fb0bdd2c4a07ca8312dc9ca950d
     Pseudo is Norm-conserving + core correction, Zval =  4.0
     Generated using ONCVPSP code by D. R. Hamann
     Using radial grid of 1528 points,  6 beta functions with: 
                l(1) =   0
                l(2) =   0
                l(3) =   1
                l(4) =   1
                l(5) =   2
                l(6) =   2

     point group O_h (m-3m) 
     there are 10 classes
     the character table:

       E     8C3   3C2   6C4   6C2'  i     8S6   3s_h  6S4   6s_d 
A_1g   1.00  1.00  1.00  1.00  1.00  1.00  1.00  1.00  1.00  1.00
A_2g   1.00  1.00  1.00 -1.00 -1.00  1.00  1.00  1.00 -1.00 -1.00
E_g    2.00 -1.00  2.00  0.00  0.00  2.00 -1.00  2.00  0.00  0.00
T_1g   3.00  0.00 -1.00  1.00 -1.00  3.00  0.00 -1.00  1.00 -1.00
T_2g   3.00  0.00 -1.00 -1.00  1.00  3.00  0.00 -1.00 -1.00  1.00
A_1u   1.00  1.00  1.00  1.00  1.00 -1.00 -1.00 -1.00 -1.00 -1.00
A_2u   1.00  1.00  1.00 -1.00 -1.00 -1.00 -1.00 -1.00  1.00  1.00
E_u    2.00 -1.00  2.00  0.00  0.00 -2.00  1.00 -2.00  0.00  0.00
T_1u   3.00  0.00 -1.00  1.00 -1.00 -3.00  0.00  1.00 -1.00  1.00
T_2u   3.00  0.00 -1.00 -1.00  1.00 -3.00  0.00  1.00  1.00 -1.00

     the symmetry operations in each class and the name of the first element:

     E        1
                                                                 
     8C3     17   21   18   19   36   20   24   23
                                                                 
     3C2      5    6   14
                                                                 
     6C4     15   16   46   44   25   29
                                                                 
     6C2'     2   11   37   28   26   22
                                                                 
     i        3
                                                                 
     8S6     34   35   43   42   41   45   47   48
                                                                 
     3s_h     7    9    8
                                                                 
     6S4     12   13   40   39   31   32
                                                                 
     6s_d     4   10   38   33   27   30
                                                                 


     Electric field:
     Dielectric constant
     Born effective charges in two ways 


     Atomic displacements:
     There are    2 irreducible representations

     Representation     1      3 modes -  To be done
     Irreps are as follows:

     mode #   1              mode #   2              mode #   3
     (  -0.45615  -0.00000 ) (  -0.53597  -0.00000 ) (  -0.06832  -0.00000 ) 
     (  -0.31583  -0.00000 ) (   0.19196   0.00000 ) (   0.60283   0.00000 ) 
     (   0.43838  -0.00000 ) (  -0.41939  -0.00000 ) (   0.36323   0.00000 ) 
     (   0.45615  -0.00000 ) (   0.53597   0.00000 ) (   0.06832   0.00000 ) 
     (   0.31583  -0.00000 ) (  -0.19196  -0.00000 ) (  -0.60283  -0.00000 ) 
     (  -0.43838  -0.00000 ) (   0.41939   0.00000 ) (  -0.36323  -0.00000 ) 

     Representation     2      3 modes -  To be done
     Irreps are as follows:

     mode #   4              mode #   5              mode #   6
     (  -0.39170  -0.00000 ) (  -0.23124  -0.00000 ) (  -0.54138  -0.00000 ) 
     (   0.56576   0.00000 ) (   0.03191  -0.00000 ) (  -0.42297  -0.00000 ) 
     (   0.16275   0.00000 ) (  -0.66746  -0.00000 ) (   0.16734   0.00000 ) 
     (  -0.39170  -0.00000 ) (  -0.23124  -0.00000 ) (  -0.54138  -0.00000 ) 
     (   0.56576   0.00000 ) (   0.03191  -0.00000 ) (  -0.42297  -0.00000 ) 
     (   0.16275   0.00000 ) (  -0.66746  -0.00000 ) (   0.16734   0.00000 ) 



     Alpha used in Ewald sum =   2.5000
     PHONON       :      0.78s CPU      0.85s WALL


     Electric Fields Calculation

      iter #   1 total cpu time :     7.9 secs   av.it.:   6.4
      thresh= 1.000E-02 alpha_mix =  0.700 |ddv_scf|^2 =  1.566E-07

      iter #   2 total cpu time :    11.1 secs   av.it.:  10.8
      thresh= 3.957E-05 alpha_mix =  0.700 |ddv_scf|^2 =  7.861E-09

      iter #   3 total cpu time :    14.2 secs   av.it.:  10.7
      thresh= 8.866E-06 alpha_mix =  0.700 |ddv_scf|^2 =  1.827E-10

      iter #   4 total cpu time :    17.4 secs   av.it.:  10.8
      thresh= 1.352E-06 alpha_mix =  0.700 |ddv_scf|^2 =  2.190E-12

      iter #   5 total cpu time :    20.6 secs   av.it.:  10.7
      thresh= 1.480E-07 alpha_mix =  0.700 |ddv_scf|^2 =  7.868E-16

     End of electric fields calculation

          Dielectric constant in cartesian axis 

          (      14.554417405      -0.000000000      -0.000000000 )
          (      -0.000000000      14.554417405      -0.000000000 )
          (      -0.000000000      -0.000000000      14.554417405 )

          Effective charges (d Force / dE) in cartesian axis without acoustic sum rule applied (asr)

           atom      1   Si Mean Z*:       -0.09643
      Ex  (       -0.09643       -0.00000        0.00000 )
      Ey  (       -0.00000       -0.09643        0.00000 )
      Ez  (        0.00000       -0.00000       -0.09643 )
           atom      2   Si Mean Z*:       -0.09643
      Ex  (       -0.09643        0.00000        0.00000 )
      Ey  (        0.00000       -0.09643       -0.00000 )
      Ez  (        0.00000        0.00000       -0.09643 )

          Effective charges Sum: Mean:       -0.19285
             -0.19285       -0.00000        0.00000
             -0.00000       -0.19285       -0.00000
              0.00000        0.00000       -0.19285

          Effective charges (d Force / dE) in cartesian axis with asr applied: 
           atom      1   Si Mean Z*:       -0.00000
      E*x (       -0.00000       -0.00000        0.00000 )
      E*y (       -0.00000        0.00000        0.00000 )
      E*z (        0.00000       -0.00000        0.00000 )
           atom      2   Si Mean Z*:        0.00000
      E*x (        0.00000        0.00000       -0.00000 )
      E*y (        0.00000        0.00000       -0.00000 )
      E*z (       -0.00000        0.00000        0.00000 )


     Representation #   1 modes #   1   2   3

     Self-consistent Calculation

      iter #   1 total cpu time :    24.2 secs   av.it.:   5.7
      thresh= 1.000E-02 alpha_mix =  0.700 |ddv_scf|^2 =  2.225E-08

      iter #   2 total cpu time :    28.0 secs   av.it.:  11.0
      thresh= 1.492E-05 alpha_mix =  0.700 |ddv_scf|^2 =  5.018E-10

      iter #   3 total cpu time :    31.4 secs   av.it.:  11.0
      thresh= 2.240E-06 alpha_mix =  0.700 |ddv_scf|^2 =  1.879E-11

      iter #   4 total cpu time :    34.6 secs   av.it.:  10.9
      thresh= 4.335E-07 alpha_mix =  0.700 |ddv_scf|^2 =  6.352E-14

     End of self-consistent calculation

     Convergence has been achieved 


     Representation #   2 modes #   4   5   6

     Self-consistent Calculation

      iter #   1 total cpu time :    37.1 secs   av.it.:   5.9
      thresh= 1.000E-02 alpha_mix =  0.700 |ddv_scf|^2 =  1.594E-08

      iter #   2 total cpu time :    40.5 secs   av.it.:  11.3
      thresh= 1.262E-05 alpha_mix =  0.700 |ddv_scf|^2 =  5.995E-10

      iter #   3 total cpu time :    43.8 secs   av.it.:  11.2
      thresh= 2.449E-06 alpha_mix =  0.700 |ddv_scf|^2 =  2.672E-11

      iter #   4 total cpu time :    47.2 secs   av.it.:  11.3
      thresh= 5.169E-07 alpha_mix =  0.700 |ddv_scf|^2 =  6.484E-14

     End of self-consistent calculation

     Convergence has been achieved 

     Number of q in the star =    1
     List of q in the star:
          1   0.000000000   0.000000000   0.000000000

          Dielectric constant in cartesian axis 

          (      14.554417405      -0.000000000      -0.000000000 )
          (      -0.000000000      14.554417405      -0.000000000 )
          (      -0.000000000      -0.000000000      14.554417405 )

          Effective charges (d Force / dE) in cartesian axis without acoustic sum rule applied (asr)

           atom      1   Si Mean Z*:       -0.09643
      Ex  (       -0.09643       -0.00000        0.00000 )
      Ey  (       -0.00000       -0.09643        0.00000 )
      Ez  (        0.00000       -0.00000       -0.09643 )
           atom      2   Si Mean Z*:       -0.09643
      Ex  (       -0.09643        0.00000        0.00000 )
      Ey  (        0.00000       -0.09643       -0.00000 )
      Ez  (        0.00000        0.00000       -0.09643 )

          Effective charges Sum: Mean:       -0.19285
             -0.19285       -0.00000        0.00000
             -0.00000       -0.19285       -0.00000
              0.00000        0.00000       -0.19285

          Effective charges (d Force / dE) in cartesian axis with asr applied: 
           atom      1   Si Mean Z*:       -0.00000
      E*x (       -0.00000       -0.00000        0.00000 )
      E*y (       -0.00000        0.00000        0.00000 )
      E*z (        0.00000       -0.00000        0.00000 )
           atom      2   Si Mean Z*:        0.00000
      E*x (        0.00000        0.00000       -0.00000 )
      E*y (        0.00000        0.00000       -0.00000 )
      E*z (       -0.00000        0.00000        0.00000 )

          Effective charges (d P / du) in cartesian axis 

           atom      1   Si 
      Px  (       -0.09455       -0.00000        0.00000 )
      Py  (        0.00000       -0.09455       -0.00000 )
      Pz  (        0.00000       -0.00000       -0.09455 )
           atom      2   Si 
      Px  (       -0.09455        0.00000        0.00000 )
      Py  (        0.00000       -0.09455       -0.00000 )
      Pz  (        0.00000        0.00000       -0.09455 )

     Diagonalizing the dynamical matrix

     q = (    0.000000000   0.000000000   0.000000000 ) 

 **************************************************************************
     freq (    1) =      -0.253472 [THz] =      -8.454930 [cm-1]
     freq (    2) =      -0.253472 [THz] =      -8.454930 [cm-1]
     freq (    3) =      -0.253472 [THz] =      -8.454930 [cm-1]
     freq (    4) =      15.277484 [THz] =     509.602006 [cm-1]
     freq (    5) =      15.277484 [THz] =     509.602006 [cm-1]
     freq (    6) =      15.277484 [THz] =     509.602006 [cm-1]
 **************************************************************************

     Mode symmetry, O_h (m-3m)  point group:

     freq (   1-   3) =         -8.5  [cm-1]   --> T_1u G_15  G_4- I  
     freq (   4-   6) =        509.6  [cm-1]   --> T_2g G_25' G_5+ R  

     Calculation of q =    0.5000000  -0.5000000   0.5000000

     G-vector sticks info
     --------------------
     sticks:   dense  smooth     PW     G-vecs:    dense   smooth      PW
     Sum         859     859    301                16889    16889    3383

     Using Slab Decomposition


     Title: 
     Phonons on a uniform grid                                                  


     bravais-lattice index     =            2
     lattice parameter (alat)  =      10.2640  a.u.
     unit-cell volume          =     270.3273 (a.u.)^3
     number of atoms/cell      =            2
     number of atomic types    =            1
     number of electrons       =         8.00
     number of Kohn-Sham states=            4
     kinetic-energy cutoff     =      60.0000  Ry
     charge density cutoff     =     240.0000  Ry
     Exchange-correlation= PBESOL
                           (   1   4  10   8   0   0   0)

     celldm(1)=  10.264000  celldm(2)=   0.000000  celldm(3)=   0.000000
     celldm(4)=   0.000000  celldm(5)=   0.000000  celldm(6)=   0.000000

     crystal axes: (cart. coord. in units of alat)
               a(1) = (  -0.500000   0.000000   0.500000 )  
               a(2) = (   0.000000   0.500000   0.500000 )  
               a(3) = (  -0.500000   0.500000   0.000000 )  

     reciprocal axes: (cart. coord. in units 2 pi/alat)
               b(1) = ( -1.000000 -1.000000  1.000000 )  
               b(2) = (  1.000000  1.000000  1.000000 )  
               b(3) = ( -1.000000  1.000000 -1.000000 )  


     PseudoPot. # 1 for Si read from file:
     ../pseudo/Si_DOJO_PBEsol.upf
     MD5 check sum: 634e5fb0bdd2c4a07ca8312dc9ca950d
     Pseudo is Norm-conserving + core correction, Zval =  4.0
     Generated using ONCVPSP code by D. R. Hamann
     Using radial grid of 1528 points,  6 beta functions with: 
                l(1) =   0
                l(2) =   0
                l(3) =   1
                l(4) =   1
                l(5) =   2
                l(6) =   2

     atomic species   valence    mass     pseudopotential
        Si             4.00    28.08500     Si( 1.00)

     48 Sym. Ops., with inversion, found


                                    s                        frac. trans.

      isym =  1     identity                                     

 cryst.   s( 1) = (     1          0          0      )
                  (     0          1          0      )
                  (     0          0          1      )

 cart.    s( 1) = (  1.0000000  0.0000000  0.0000000 )
                  (  0.0000000  1.0000000  0.0000000 )
                  (  0.0000000  0.0000000  1.0000000 )


      isym =  2     180 deg rotation - cart. axis [-1,0,1]       

 cryst.   s( 2) = (     1          0          0      )    f =(  0.2500000 )
                  (     1         -1          0      )       (  0.2500000 )
                  (     1          0         -1      )       (  0.2500000 )

 cart.    s( 2) = (  0.0000000  0.0000000 -1.0000000 )    f =( -0.2500000 )
                  (  0.0000000 -1.0000000  0.0000000 )       (  0.2500000 )
                  ( -1.0000000  0.0000000  0.0000000 )       (  0.2500000 )


      isym =  3     inversion                                    

 cryst.   s( 3) = (    -1          0          0      )    f =(  0.2500000 )
                  (     0         -1          0      )       (  0.2500000 )
                  (     0          0         -1      )       (  0.2500000 )

 cart.    s( 3) = ( -1.0000000  0.0000000  0.0000000 )    f =( -0.2500000 )
                  (  0.0000000 -1.0000000  0.0000000 )       (  0.2500000 )
                  (  0.0000000  0.0000000 -1.0000000 )       (  0.2500000 )


      isym =  4     inv. 180 deg rotation - cart. axis [-1,0,1]  

 cryst.   s( 4) = (    -1          0          0      )
                  (    -1          1          0      )
                  (    -1          0          1      )

 cart.    s( 4) = (  0.0000000  0.0000000  1.0000000 )
                  (  0.0000000  1.0000000  0.0000000 )
                  (  1.0000000  0.0000000  0.0000000 )


      isym =  5     120 deg rotation - cart. axis [-1,1,-1]      

 cryst.   s( 5) = (    -1          1          0      )
                  (    -1          0          0      )
                  (    -1          0          1      )

 cart.    s( 5) = (  0.0000000  0.0000000  1.0000000 )
                  ( -1.0000000  0.0000000  0.0000000 )
                  (  0.0000000 -1.0000000  0.0000000 )


      isym =  6     180 deg rotation - cart. axis [1,1,0]        

 cryst.   s( 6) = (     0         -1          0      )    f =(  0.2500000 )
                  (    -1          0          0      )       (  0.2500000 )
                  (     0          0         -1      )       (  0.2500000 )

 cart.    s( 6) = (  0.0000000  1.0000000  0.0000000 )    f =( -0.2500000 )
                  (  1.0000000  0.0000000  0.0000000 )       (  0.2500000 )
                  (  0.0000000  0.0000000 -1.0000000 )       (  0.2500000 )


      isym =  7     inv. 180 deg rotation - cart. axis [1,1,0]   

 cryst.   s( 7) = (     0          1          0      )
                  (     1          0          0      )
                  (     0          0          1      )

 cart.    s( 7) = (  0.0000000 -1.0000000  0.0000000 )
                  ( -1.0000000  0.0000000  0.0000000 )
                  (  0.0000000  0.0000000  1.0000000 )


      isym =  8     180 deg rotation - cart. axis [0,1,1]        

 cryst.   s( 8) = (    -1          1          0      )    f =(  0.2500000 )
                  (     0          1          0      )       (  0.2500000 )
                  (     0          1         -1      )       (  0.2500000 )

 cart.    s( 8) = ( -1.0000000  0.0000000  0.0000000 )    f =( -0.2500000 )
                  (  0.0000000  0.0000000  1.0000000 )       (  0.2500000 )
                  (  0.0000000  1.0000000  0.0000000 )       (  0.2500000 )


      isym =  9     inv. 180 deg rotation - cart. axis [0,1,1]   

 cryst.   s( 9) = (     1         -1          0      )
                  (     0         -1          0      )
                  (     0         -1          1      )

 cart.    s( 9) = (  1.0000000  0.0000000  0.0000000 )
                  (  0.0000000  0.0000000 -1.0000000 )
                  (  0.0000000 -1.0000000  0.0000000 )


      isym = 10     inv. 120 deg rotation - cart. axis [1,-1,1]  

 cryst.   s(10) = (     0          1          0      )    f =(  0.2500000 )
                  (    -1          1          0      )       (  0.2500000 )
                  (     0          1         -1      )       (  0.2500000 )

 cart.    s(10) = (  0.0000000  1.0000000  0.0000000 )    f =( -0.2500000 )
                  (  0.0000000  0.0000000  1.0000000 )       (  0.2500000 )
                  ( -1.0000000  0.0000000  0.0000000 )       (  0.2500000 )


      isym = 11     inv. 120 deg rotation - cart. axis [-1,1,-1] 

 cryst.   s(11) = (     1         -1          0      )    f =(  0.2500000 )
                  (     1          0          0      )       (  0.2500000 )
                  (     1          0         -1      )       (  0.2500000 )

 cart.    s(11) = (  0.0000000  0.0000000 -1.0000000 )    f =( -0.2500000 )
                  (  1.0000000  0.0000000  0.0000000 )       (  0.2500000 )
                  (  0.0000000  1.0000000  0.0000000 )       (  0.2500000 )


      isym = 12     120 deg rotation - cart. axis [1,-1,1]       

 cryst.   s(12) = (     0         -1          0      )
                  (     1         -1          0      )
                  (     0         -1          1      )

 cart.    s(12) = (  0.0000000 -1.0000000  0.0000000 )
                  (  0.0000000  0.0000000 -1.0000000 )
                  (  1.0000000  0.0000000  0.0000000 )


      isym = 13     inv.  90 deg rotation - cart. axis [0,-1,0]  

 cryst.   s(13) = (     0          1         -1      )
                  (     0          0         -1      )
                  (     1          0         -1      )

 cart.    s(13) = (  0.0000000  0.0000000  1.0000000 )
                  (  0.0000000 -1.0000000  0.0000000 )
                  ( -1.0000000  0.0000000  0.0000000 )


      isym = 14     180 deg rotation - cart. axis [0,1,0]        

 cryst.   s(14) = (    -1          0          0      )
                  (    -1          0          1      )
                  (    -1          1          0      )

 cart.    s(14) = ( -1.0000000  0.0000000  0.0000000 )
                  (  0.0000000  1.0000000  0.0000000 )
                  (  0.0000000  0.0000000 -1.0000000 )


      isym = 15      90 deg rotation - cart. axis [0,1,0]        

 cryst.   s(15) = (     0          1         -1      )    f =(  0.2500000 )
                  (    -1          1          0      )       (  0.2500000 )
                  (     0          1          0      )       (  0.2500000 )

 cart.    s(15) = (  0.0000000  0.0000000  1.0000000 )    f =( -0.2500000 )
                  (  0.0000000  1.0000000  0.0000000 )       (  0.2500000 )
                  ( -1.0000000  0.0000000  0.0000000 )       (  0.2500000 )


      isym = 16      90 deg rotation - cart. axis [0,-1,0]       

 cryst.   s(16) = (     0         -1          1      )    f =(  0.2500000 )
                  (     0          0          1      )       (  0.2500000 )
                  (    -1          0          1      )       (  0.2500000 )

 cart.    s(16) = (  0.0000000  0.0000000 -1.0000000 )    f =( -0.2500000 )
                  (  0.0000000  1.0000000  0.0000000 )       (  0.2500000 )
                  (  1.0000000  0.0000000  0.0000000 )       (  0.2500000 )


      isym = 17     120 deg rotation - cart. axis [-1,-1,-1]     

 cryst.   s(17) = (    -1          0          1      )
                  (    -1          1          0      )
                  (    -1          0          0      )

 cart.    s(17) = (  0.0000000  1.0000000  0.0000000 )
                  (  0.0000000  0.0000000  1.0000000 )
                  (  1.0000000  0.0000000  0.0000000 )


      isym = 18     120 deg rotation - cart. axis [-1,1,1]       

 cryst.   s(18) = (     0          1          0      )
                  (     0          0          1      )
                  (     1          0          0      )

 cart.    s(18) = (  0.0000000 -1.0000000  0.0000000 )
                  (  0.0000000  0.0000000  1.0000000 )
                  ( -1.0000000  0.0000000  0.0000000 )


      isym = 19     120 deg rotation - cart. axis [1,1,-1]       

 cryst.   s(19) = (     1          0         -1      )
                  (     0          0         -1      )
                  (     0          1         -1      )

 cart.    s(19) = (  0.0000000  1.0000000  0.0000000 )
                  (  0.0000000  0.0000000 -1.0000000 )
                  ( -1.0000000  0.0000000  0.0000000 )


      isym = 20     180 deg rotation - cart. axis [1,0,0]        

 cryst.   s(20) = (     0         -1          1      )
                  (     0         -1          0      )
                  (     1         -1          0      )

 cart.    s(20) = (  1.0000000  0.0000000  0.0000000 )
                  (  0.0000000 -1.0000000  0.0000000 )
                  (  0.0000000  0.0000000 -1.0000000 )


      isym = 21     120 deg rotation - cart. axis [1,1,1]        

 cryst.   s(21) = (     0          0         -1      )
                  (     0          1         -1      )
                  (     1          0         -1      )

 cart.    s(21) = (  0.0000000  0.0000000  1.0000000 )
                  (  1.0000000  0.0000000  0.0000000 )
                  (  0.0000000  1.0000000  0.0000000 )


      isym = 22     180 deg rotation - cart. axis [1,-1,0]       

 cryst.   s(22) = (    -1          0          1      )    f =(  0.2500000 )
                  (     0         -1          1      )       (  0.2500000 )
                  (     0          0          1      )       (  0.2500000 )

 cart.    s(22) = (  0.0000000 -1.0000000  0.0000000 )    f =( -0.2500000 )
                  ( -1.0000000  0.0000000  0.0000000 )       (  0.2500000 )
                  (  0.0000000  0.0000000 -1.0000000 )       (  0.2500000 )


      isym = 23     120 deg rotation - cart. axis [1,-1,-1]      

 cryst.   s(23) = (     0          0          1      )
                  (     1          0          0      )
                  (     0          1          0      )

 cart.    s(23) = (  0.0000000  0.0000000 -1.0000000 )
                  ( -1.0000000  0.0000000  0.0000000 )
                  (  0.0000000  1.0000000  0.0000000 )


      isym = 24     120 deg rotation - cart. axis [-1,-1,1]      

 cryst.   s(24) = (     1         -1          0      )
                  (     0         -1          1      )
                  (     0         -1          0      )

 cart.    s(24) = (  0.0000000  0.0000000 -1.0000000 )
                  (  1.0000000  0.0000000  0.0000000 )
                  (  0.0000000 -1.0000000  0.0000000 )


      isym = 25      90 deg rotation - cart. axis [0,0,-1]       

 cryst.   s(25) = (     0          1          0      )    f =(  0.2500000 )
                  (     0          1         -1      )       (  0.2500000 )
                  (    -1          1          0      )       (  0.2500000 )

 cart.    s(25) = (  0.0000000  1.0000000  0.0000000 )    f =( -0.2500000 )
                  ( -1.0000000  0.0000000  0.0000000 )       (  0.2500000 )
                  (  0.0000000  0.0000000  1.0000000 )       (  0.2500000 )


      isym = 26     180 deg rotation - cart. axis [0,0,1]        

 cryst.   s(26) = (     0          1         -1      )
                  (     1          0         -1      )
                  (     0          0         -1      )

 cart.    s(26) = ( -1.0000000  0.0000000  0.0000000 )
                  (  0.0000000 -1.0000000  0.0000000 )
                  (  0.0000000  0.0000000  1.0000000 )


      isym = 27     inv. 180 deg rotation - cart. axis [0,0,1]   

 cryst.   s(27) = (     0         -1          1      )    f =(  0.2500000 )
                  (    -1          0          1      )       (  0.2500000 )
                  (     0          0          1      )       (  0.2500000 )

 cart.    s(27) = (  1.0000000  0.0000000  0.0000000 )    f =( -0.2500000 )
                  (  0.0000000  1.0000000  0.0000000 )       (  0.2500000 )
                  (  0.0000000  0.0000000 -1.0000000 )       (  0.2500000 )


      isym = 28     inv. 180 deg rotation - cart. axis [0,1,0]   

 cryst.   s(28) = (     1          0          0      )    f =(  0.2500000 )
                  (     1          0         -1      )       (  0.2500000 )
                  (     1         -1          0      )       (  0.2500000 )

 cart.    s(28) = (  1.0000000  0.0000000  0.0000000 )    f =( -0.2500000 )
                  (  0.0000000 -1.0000000  0.0000000 )       (  0.2500000 )
                  (  0.0000000  0.0000000  1.0000000 )       (  0.2500000 )


      isym = 29      90 deg rotation - cart. axis [0,0,1]        

 cryst.   s(29) = (     1          0         -1      )    f =(  0.2500000 )
                  (     1          0          0      )       (  0.2500000 )
                  (     1         -1          0      )       (  0.2500000 )

 cart.    s(29) = (  0.0000000 -1.0000000  0.0000000 )    f =( -0.2500000 )
                  (  1.0000000  0.0000000  0.0000000 )       (  0.2500000 )
                  (  0.0000000  0.0000000  1.0000000 )       (  0.2500000 )


      isym = 30     inv. 180 deg rotation - cart. axis [1,-1,0]  

 cryst.   s(30) = (     1          0         -1      )
                  (     0          1         -1      )
                  (     0          0         -1      )

 cart.    s(30) = (  0.0000000  1.0000000  0.0000000 )
                  (  1.0000000  0.0000000  0.0000000 )
                  (  0.0000000  0.0000000  1.0000000 )


      isym = 31     inv.  90 deg rotation - cart. axis [0,0,-1]  

 cryst.   s(31) = (     0         -1          0      )
                  (     0         -1          1      )
                  (     1         -1          0      )

 cart.    s(31) = (  0.0000000 -1.0000000  0.0000000 )
                  (  1.0000000  0.0000000  0.0000000 )
                  (  0.0000000  0.0000000 -1.0000000 )


      isym = 32     inv.  90 deg rotation - cart. axis [0,0,1]   

 cryst.   s(32) = (    -1          0          1      )
                  (    -1          0          0      )
                  (    -1          1          0      )

 cart.    s(32) = (  0.0000000  1.0000000  0.0000000 )
                  ( -1.0000000  0.0000000  0.0000000 )
                  (  0.0000000  0.0000000 -1.0000000 )


      isym = 33     inv. 180 deg rotation - cart. axis [1,0,0]   

 cryst.   s(33) = (     0          1         -1      )    f =(  0.2500000 )
                  (     0          1          0      )       (  0.2500000 )
                  (    -1          1          0      )       (  0.2500000 )

 cart.    s(33) = ( -1.0000000  0.0000000  0.0000000 )    f =( -0.2500000 )
                  (  0.0000000  1.0000000  0.0000000 )       (  0.2500000 )
                  (  0.0000000  0.0000000  1.0000000 )       (  0.2500000 )


      isym = 34     inv. 180 deg rotation - cart. axis [1,0,1]   

 cryst.   s(34) = (     1          0          0      )
                  (     0          0          1      )
                  (     0          1          0      )

 cart.    s(34) = (  0.0000000  0.0000000 -1.0000000 )
                  (  0.0000000  1.0000000  0.0000000 )
                  ( -1.0000000  0.0000000  0.0000000 )


      isym = 35     180 deg rotation - cart. axis [1,0,1]        

 cryst.   s(35) = (    -1          0          0      )    f =(  0.2500000 )
                  (     0          0         -1      )       (  0.2500000 )
                  (     0         -1          0      )       (  0.2500000 )

 cart.    s(35) = (  0.0000000  0.0000000  1.0000000 )    f =( -0.2500000 )
                  (  0.0000000 -1.0000000  0.0000000 )       (  0.2500000 )
                  (  1.0000000  0.0000000  0.0000000 )       (  0.2500000 )


      isym = 36     inv.  90 deg rotation - cart. axis [0,1,0]   

 cryst.   s(36) = (     0         -1          1      )
                  (     1         -1          0      )
                  (     0         -1          0      )

 cart.    s(36) = (  0.0000000  0.0000000 -1.0000000 )
                  (  0.0000000 -1.0000000  0.0000000 )
                  (  1.0000000  0.0000000  0.0000000 )


      isym = 37     180 deg rotation - cart. axis [0,1,-1]       

 cryst.   s(37) = (     0          0         -1      )    f =(  0.2500000 )
                  (     0         -1          0      )       (  0.2500000 )
                  (    -1          0          0      )       (  0.2500000 )

 cart.    s(37) = ( -1.0000000  0.0000000  0.0000000 )    f =( -0.2500000 )
                  (  0.0000000  0.0000000 -1.0000000 )       (  0.2500000 )
                  (  0.0000000 -1.0000000  0.0000000 )       (  0.2500000 )


      isym = 38     inv. 180 deg rotation - cart. axis [0,1,-1]  

 cryst.   s(38) = (     0          0          1      )
                  (     0          1          0      )
                  (     1          0          0      )

 cart.    s(38) = (  1.0000000  0.0000000  0.0000000 )
                  (  0.0000000  0.0000000  1.0000000 )
                  (  0.0000000  1.0000000  0.0000000 )


      isym = 39     inv.  90 deg rotation - cart. axis [-1,0,0]  

 cryst.   s(39) = (     0          0         -1      )
                  (     1          0         -1      )
                  (     0          1         -1      )

 cart.    s(39) = ( -1.0000000  0.0000000  0.0000000 )
                  (  0.0000000  0.0000000 -1.0000000 )
                  (  0.0000000  1.0000000  0.0000000 )


      isym = 40     inv.  90 deg rotation - cart. axis [1,0,0]   

 cryst.   s(40) = (    -1          1          0      )
                  (    -1          0          1      )
                  (    -1          0          0      )

 cart.    s(40) = ( -1.0000000  0.0000000  0.0000000 )
                  (  0.0000000  0.0000000  1.0000000 )
                  (  0.0000000 -1.0000000  0.0000000 )


      isym = 41     inv. 120 deg rotation - cart. axis [-1,-1,-1]

 cryst.   s(41) = (     1          0         -1      )    f =(  0.2500000 )
                  (     1         -1          0      )       (  0.2500000 )
                  (     1          0          0      )       (  0.2500000 )

 cart.    s(41) = (  0.0000000 -1.0000000  0.0000000 )    f =( -0.2500000 )
                  (  0.0000000  0.0000000 -1.0000000 )       (  0.2500000 )
                  ( -1.0000000  0.0000000  0.0000000 )       (  0.2500000 )


      isym = 42     inv. 120 deg rotation - cart. axis [-1,1,1]  

 cryst.   s(42) = (     0         -1          0      )    f =(  0.2500000 )
                  (     0          0         -1      )       (  0.2500000 )
                  (    -1          0          0      )       (  0.2500000 )

 cart.    s(42) = (  0.0000000  1.0000000  0.0000000 )    f =( -0.2500000 )
                  (  0.0000000  0.0000000 -1.0000000 )       (  0.2500000 )
                  (  1.0000000  0.0000000  0.0000000 )       (  0.2500000 )


      isym = 43     inv. 120 deg rotation - cart. axis [1,1,-1]  

 cryst.   s(43) = (    -1          0          1      )    f =(  0.2500000 )
                  (     0          0          1      )       (  0.2500000 )
                  (     0         -1          1      )       (  0.2500000 )

 cart.    s(43) = (  0.0000000 -1.0000000  0.0000000 )    f =( -0.2500000 )
                  (  0.0000000  0.0000000  1.0000000 )       (  0.2500000 )
                  (  1.0000000  0.0000000  0.0000000 )       (  0.2500000 )


      isym = 44      90 deg rotation - cart. axis [-1,0,0]       

 cryst.   s(44) = (     0          0          1      )    f =(  0.2500000 )
                  (    -1          0          1      )       (  0.2500000 )
                  (     0         -1          1      )       (  0.2500000 )

 cart.    s(44) = (  1.0000000  0.0000000  0.0000000 )    f =( -0.2500000 )
                  (  0.0000000  0.0000000  1.0000000 )       (  0.2500000 )
                  (  0.0000000 -1.0000000  0.0000000 )       (  0.2500000 )


      isym = 45     inv. 120 deg rotation - cart. axis [1,1,1]   

 cryst.   s(45) = (     0          0          1      )    f =(  0.2500000 )
                  (     0         -1          1      )       (  0.2500000 )
                  (    -1          0          1      )       (  0.2500000 )

 cart.    s(45) = (  0.0000000  0.0000000 -1.0000000 )    f =( -0.2500000 )
                  ( -1.0000000  0.0000000  0.0000000 )       (  0.2500000 )
                  (  0.0000000 -1.0000000  0.0000000 )       (  0.2500000 )


      isym = 46      90 deg rotation - cart. axis [1,0,0]        

 cryst.   s(46) = (     1         -1          0      )    f =(  0.2500000 )
                  (     1          0         -1      )       (  0.2500000 )
                  (     1          0          0      )       (  0.2500000 )

 cart.    s(46) = (  1.0000000  0.0000000  0.0000000 )    f =( -0.2500000 )
                  (  0.0000000  0.0000000 -1.0000000 )       (  0.2500000 )
                  (  0.0000000  1.0000000  0.0000000 )       (  0.2500000 )


      isym = 47     inv. 120 deg rotation - cart. axis [1,-1,-1] 

 cryst.   s(47) = (     0          0         -1      )    f =(  0.2500000 )
                  (    -1          0          0      )       (  0.2500000 )
                  (     0         -1          0      )       (  0.2500000 )

 cart.    s(47) = (  0.0000000  0.0000000  1.0000000 )    f =( -0.2500000 )
                  (  1.0000000  0.0000000  0.0000000 )       (  0.2500000 )
                  (  0.0000000 -1.0000000  0.0000000 )       (  0.2500000 )


      isym = 48     inv. 120 deg rotation - cart. axis [-1,-1,1] 

 cryst.   s(48) = (    -1          1          0      )    f =(  0.2500000 )
                  (     0          1         -1      )       (  0.2500000 )
                  (     0          1          0      )       (  0.2500000 )

 cart.    s(48) = (  0.0000000  0.0000000  1.0000000 )    f =( -0.2500000 )
                  ( -1.0000000  0.0000000  0.0000000 )       (  0.2500000 )
                  (  0.0000000  1.0000000  0.0000000 )       (  0.2500000 )


     point group O_h (m-3m) 
     there are 10 classes
     the character table:

       E     8C3   3C2   6C4   6C2'  i     8S6   3s_h  6S4   6s_d 
A_1g   1.00  1.00  1.00  1.00  1.00  1.00  1.00  1.00  1.00  1.00
A_2g   1.00  1.00  1.00 -1.00 -1.00  1.00  1.00  1.00 -1.00 -1.00
E_g    2.00 -1.00  2.00  0.00  0.00  2.00 -1.00  2.00  0.00  0.00
T_1g   3.00  0.00 -1.00  1.00 -1.00  3.00  0.00 -1.00  1.00 -1.00
T_2g   3.00  0.00 -1.00 -1.00  1.00  3.00  0.00 -1.00 -1.00  1.00
A_1u   1.00  1.00  1.00  1.00  1.00 -1.00 -1.00 -1.00 -1.00 -1.00
A_2u   1.00  1.00  1.00 -1.00 -1.00 -1.00 -1.00 -1.00  1.00  1.00
E_u    2.00 -1.00  2.00  0.00  0.00 -2.00  1.00 -2.00  0.00  0.00
T_1u   3.00  0.00 -1.00  1.00 -1.00 -3.00  0.00  1.00 -1.00  1.00
T_2u   3.00  0.00 -1.00 -1.00  1.00 -3.00  0.00  1.00  1.00 -1.00

     the symmetry operations in each class and the name of the first element:

     E        1
          identity                                               
     8C3      5   12   19   21   18   23   24   17
          120 deg rotation - cart. axis [-1,1,-1]                
     3C2     14   26   20
          180 deg rotation - cart. axis [0,1,0]                  
     6C4     15   16   25   46   29   44
           90 deg rotation - cart. axis [0,1,0]                  
     6C2'     2    6    8   35   37   22
          180 deg rotation - cart. axis [-1,0,1]                 
     i        3
          inversion                                              
     8S6     10   11   48   41   47   42   43   45
          inv. 120 deg rotation - cart. axis [1,-1,1]            
     3s_h    27   33   28
          inv. 180 deg rotation - cart. axis [0,0,1]             
     6S4     13   36   32   39   31   40
          inv.  90 deg rotation - cart. axis [0,-1,0]            
     6s_d     4    7    9   34   38   30
          inv. 180 deg rotation - cart. axis [-1,0,1]            

   Cartesian axes

     site n.     atom                  positions (alat units)
         1           Si  tau(   1) = (   0.0000000   0.0000000   0.0000000  )
         2           Si  tau(   2) = (   0.2500000   0.2500000   0.2500000  )

   Crystallographic axes

     site n.     atom                  positions (cryst. coord.)
         1           Si  tau(   1) = (  0.0000000  0.0000000  0.0000000  )
         2           Si  tau(   2) = ( -0.2500000  0.7500000 -0.2500000  )

     number of k points=   130
                       cart. coord. in units 2pi/alat
        k(    1) = (   0.0000000   0.0000000   0.0000000), wk =   0.0039062
        k(    2) = (   0.5000000  -0.5000000   0.5000000), wk =   0.0000000
        k(    3) = (  -0.1250000   0.1250000  -0.1250000), wk =   0.0078125
        k(    4) = (   0.3750000  -0.3750000   0.3750000), wk =   0.0000000
        k(    5) = (  -0.2500000   0.2500000  -0.2500000), wk =   0.0078125
        k(    6) = (   0.2500000  -0.2500000   0.2500000), wk =   0.0000000
        k(    7) = (  -0.3750000   0.3750000  -0.3750000), wk =   0.0078125
        k(    8) = (   0.1250000  -0.1250000   0.1250000), wk =   0.0000000
        k(    9) = (   0.5000000  -0.5000000   0.5000000), wk =   0.0039062
        k(   10) = (   1.0000000  -1.0000000   1.0000000), wk =   0.0000000
        k(   11) = (   0.0000000   0.2500000   0.0000000), wk =   0.0234375
        k(   12) = (   0.5000000  -0.2500000   0.5000000), wk =   0.0000000
        k(   13) = (  -0.1250000   0.3750000  -0.1250000), wk =   0.0234375
        k(   14) = (   0.3750000  -0.1250000   0.3750000), wk =   0.0000000
        k(   15) = (  -0.2500000   0.5000000  -0.2500000), wk =   0.0234375
        k(   16) = (   0.2500000   0.0000000   0.2500000), wk =   0.0000000
        k(   17) = (   0.6250000  -0.3750000   0.6250000), wk =   0.0234375
        k(   18) = (   1.1250000  -0.8750000   1.1250000), wk =   0.0000000
        k(   19) = (   0.5000000  -0.2500000   0.5000000), wk =   0.0234375
        k(   20) = (   1.0000000  -0.7500000   1.0000000), wk =   0.0000000
        k(   21) = (   0.3750000  -0.1250000   0.3750000), wk =   0.0234375
        k(   22) = (   0.8750000  -0.6250000   0.8750000), wk =   0.0000000
        k(   23) = (   0.2500000   0.0000000   0.2500000), wk =   0.0234375
        k(   24) = (   0.7500000  -0.5000000   0.7500000), wk =   0.0000000
        k(   25) = (   0.0000000   0.5000000   0.0000000), wk =   0.0234375
        k(   26) = (   0.5000000   0.0000000   0.5000000), wk =   0.0000000
        k(   27) = (  -0.1250000   0.6250000  -0.1250000), wk =   0.0234375
        k(   28) = (   0.3750000   0.1250000   0.3750000), wk =   0.0000000
        k(   29) = (   0.7500000  -0.2500000   0.7500000), wk =   0.0234375
        k(   30) = (   1.2500000  -0.7500000   1.2500000), wk =   0.0000000
        k(   31) = (   0.6250000  -0.1250000   0.6250000), wk =   0.0234375
        k(   32) = (   1.1250000  -0.6250000   1.1250000), wk =   0.0000000
        k(   33) = (   0.5000000   0.0000000   0.5000000), wk =   0.0234375
        k(   34) = (   1.0000000  -0.5000000   1.0000000), wk =   0.0000000
        k(   35) = (   0.0000000   0.7500000   0.0000000), wk =   0.0234375
        k(   36) = (   0.5000000   0.2500000   0.5000000), wk =   0.0000000
        k(   37) = (   0.8750000  -0.1250000   0.8750000), wk =   0.0234375
        k(   38) = (   1.3750000  -0.6250000   1.3750000), wk =   0.0000000
        k(   39) = (   0.7500000   0.0000000   0.7500000), wk =   0.0234375
        k(   40) = (   1.2500000  -0.5000000   1.2500000), wk =   0.0000000
        k(   41) = (   0.0000000  -1.0000000   0.0000000), wk =   0.0117188
        k(   42) = (   0.5000000  -1.5000000   0.5000000), wk =   0.0000000
        k(   43) = (  -0.2500000   0.5000000   0.0000000), wk =   0.0468750
        k(   44) = (   0.2500000   0.0000000   0.5000000), wk =   0.0000000
        k(   45) = (   0.6250000  -0.3750000   0.8750000), wk =   0.0468750
        k(   46) = (   1.1250000  -0.8750000   1.3750000), wk =   0.0000000
        k(   47) = (   0.5000000  -0.2500000   0.7500000), wk =   0.0234375
        k(   48) = (   1.0000000  -0.7500000   1.2500000), wk =   0.0000000
        k(   49) = (   0.7500000  -0.2500000   1.0000000), wk =   0.0468750
        k(   50) = (   1.2500000  -0.7500000   1.5000000), wk =   0.0000000
        k(   51) = (   0.6250000  -0.1250000   0.8750000), wk =   0.0468750
        k(   52) = (   1.1250000  -0.6250000   1.3750000), wk =   0.0000000
        k(   53) = (   0.5000000   0.0000000   0.7500000), wk =   0.0468750
        k(   54) = (   1.0000000  -0.5000000   1.2500000), wk =   0.0000000
        k(   55) = (  -0.2500000  -1.0000000   0.0000000), wk =   0.0468750
        k(   56) = (   0.2500000  -1.5000000   0.5000000), wk =   0.0000000
        k(   57) = (  -0.5000000  -1.0000000   0.0000000), wk =   0.0234375
        k(   58) = (   0.0000000  -1.5000000   0.5000000), wk =   0.0000000
        k(   59) = (  -0.1250000  -0.1250000   0.1250000), wk =   0.0234375
        k(   60) = (   0.3750000  -0.6250000   0.6250000), wk =   0.0000000
        k(   61) = (  -0.2500000  -0.2500000   0.2500000), wk =   0.0234375
        k(   62) = (   0.2500000  -0.7500000   0.7500000), wk =   0.0000000
        k(   63) = (  -0.3750000  -0.3750000   0.3750000), wk =   0.0234375
        k(   64) = (   0.1250000  -0.8750000   0.8750000), wk =   0.0000000
        k(   65) = (   0.5000000   0.5000000  -0.5000000), wk =   0.0117188
        k(   66) = (   1.0000000   0.0000000   0.0000000), wk =   0.0000000
        k(   67) = (  -0.1250000  -0.3750000   0.1250000), wk =   0.0468750
[...]
        k(    8) = (   0.0000000  -0.5000000  -0.1250000), wk =   0.0000000
        k(    9) = (   0.0000000   0.0000000  -0.5000000), wk =   0.0156250
        k(   10) = (   0.0000000  -0.5000000  -1.0000000), wk =   0.0000000
        k(   11) = (   0.0000000   0.1250000   0.1250000), wk =   0.0078125
        k(   12) = (   0.0000000  -0.3750000  -0.3750000), wk =   0.0000000
        k(   13) = (   0.0000000   0.1250000   0.2500000), wk =   0.0312500
        k(   14) = (   0.0000000  -0.3750000  -0.2500000), wk =   0.0000000
        k(   15) = (   0.0000000   0.1250000   0.3750000), wk =   0.0312500
        k(   16) = (   0.0000000  -0.3750000  -0.1250000), wk =   0.0000000
        k(   17) = (   0.0000000   0.1250000  -0.5000000), wk =   0.0312500
        k(   18) = (   0.0000000  -0.3750000  -1.0000000), wk =   0.0000000
        k(   19) = (   0.0000000   0.1250000  -0.3750000), wk =   0.0312500
        k(   20) = (   0.0000000  -0.3750000  -0.8750000), wk =   0.0000000
        k(   21) = (   0.0000000   0.1250000  -0.2500000), wk =   0.0312500
        k(   22) = (   0.0000000  -0.3750000  -0.7500000), wk =   0.0000000
        k(   23) = (   0.0000000   0.1250000  -0.1250000), wk =   0.0156250
        k(   24) = (   0.0000000  -0.3750000  -0.6250000), wk =   0.0000000
        k(   25) = (   0.0000000   0.2500000   0.2500000), wk =   0.0078125
        k(   26) = (   0.0000000  -0.2500000  -0.2500000), wk =   0.0000000
        k(   27) = (   0.0000000   0.2500000   0.3750000), wk =   0.0312500
        k(   28) = (   0.0000000  -0.2500000  -0.1250000), wk =   0.0000000
        k(   29) = (   0.0000000   0.2500000  -0.5000000), wk =   0.0312500
        k(   30) = (   0.0000000  -0.2500000  -1.0000000), wk =   0.0000000
        k(   31) = (   0.0000000   0.2500000  -0.3750000), wk =   0.0312500
        k(   32) = (   0.0000000  -0.2500000  -0.8750000), wk =   0.0000000
        k(   33) = (   0.0000000   0.2500000  -0.2500000), wk =   0.0156250
        k(   34) = (   0.0000000  -0.2500000  -0.7500000), wk =   0.0000000
        k(   35) = (   0.0000000   0.3750000   0.3750000), wk =   0.0078125
        k(   36) = (   0.0000000  -0.1250000  -0.1250000), wk =   0.0000000
        k(   37) = (   0.0000000   0.3750000  -0.5000000), wk =   0.0312500
        k(   38) = (   0.0000000  -0.1250000  -1.0000000), wk =   0.0000000
        k(   39) = (   0.0000000   0.3750000  -0.3750000), wk =   0.0156250
        k(   40) = (   0.0000000  -0.1250000  -0.8750000), wk =   0.0000000
        k(   41) = (   0.0000000  -0.5000000  -0.5000000), wk =   0.0039062
        k(   42) = (   0.0000000  -1.0000000  -1.0000000), wk =   0.0000000
        k(   43) = (   0.1250000   0.2500000   0.3750000), wk =   0.0312500
        k(   44) = (   0.1250000  -0.2500000  -0.1250000), wk =   0.0000000
        k(   45) = (   0.1250000   0.2500000  -0.5000000), wk =   0.0625000
        k(   46) = (   0.1250000  -0.2500000  -1.0000000), wk =   0.0000000
        k(   47) = (   0.1250000   0.2500000  -0.3750000), wk =   0.0625000
        k(   48) = (   0.1250000  -0.2500000  -0.8750000), wk =   0.0000000
        k(   49) = (   0.1250000   0.3750000  -0.5000000), wk =   0.0312500
        k(   50) = (   0.1250000  -0.1250000  -1.0000000), wk =   0.0000000
        k(   51) = (   0.1250000   0.3750000  -0.3750000), wk =   0.0625000
        k(   52) = (   0.1250000  -0.1250000  -0.8750000), wk =   0.0000000
        k(   53) = (   0.1250000   0.3750000  -0.2500000), wk =   0.0312500
        k(   54) = (   0.1250000  -0.1250000  -0.7500000), wk =   0.0000000
        k(   55) = (   0.1250000  -0.5000000  -0.3750000), wk =   0.0156250
        k(   56) = (   0.1250000  -1.0000000  -0.8750000), wk =   0.0000000
        k(   57) = (   0.2500000  -0.5000000  -0.2500000), wk =   0.0156250
        k(   58) = (   0.2500000  -1.0000000  -0.7500000), wk =   0.0000000
        k(   59) = (  -0.1250000   0.0000000  -0.1250000), wk =   0.0156250
        k(   60) = (  -0.1250000  -0.5000000  -0.6250000), wk =   0.0000000
        k(   61) = (  -0.2500000  -0.1250000  -0.2500000), wk =   0.0625000
        k(   62) = (  -0.2500000  -0.6250000  -0.7500000), wk =   0.0000000
        k(   63) = (  -0.3750000  -0.2500000  -0.3750000), wk =   0.0625000
        k(   64) = (  -0.3750000  -0.7500000  -0.8750000), wk =   0.0000000
        k(   65) = (   0.5000000   0.6250000   0.5000000), wk =   0.0625000
        k(   66) = (   0.5000000   0.1250000   0.0000000), wk =   0.0000000
        k(   67) = (   0.3750000   0.5000000   0.3750000), wk =   0.0625000
        k(   68) = (   0.3750000   0.0000000  -0.1250000), wk =   0.0000000
        k(   69) = (   0.2500000   0.3750000   0.2500000), wk =   0.0625000
        k(   70) = (   0.2500000  -0.1250000  -0.2500000), wk =   0.0000000
        k(   71) = (   0.1250000   0.2500000   0.1250000), wk =   0.0312500
        k(   72) = (   0.1250000  -0.2500000  -0.3750000), wk =   0.0000000
        k(   73) = (  -0.2500000   0.0000000  -0.2500000), wk =   0.0156250
        k(   74) = (  -0.2500000  -0.5000000  -0.7500000), wk =   0.0000000
        k(   75) = (  -0.3750000  -0.1250000  -0.3750000), wk =   0.0625000
        k(   76) = (  -0.3750000  -0.6250000  -0.8750000), wk =   0.0000000
        k(   77) = (   0.5000000   0.7500000   0.5000000), wk =   0.0625000
        k(   78) = (   0.5000000   0.2500000   0.0000000), wk =   0.0000000
        k(   79) = (   0.3750000   0.6250000   0.3750000), wk =   0.0625000
        k(   80) = (   0.3750000   0.1250000  -0.1250000), wk =   0.0000000
        k(   81) = (   0.2500000   0.5000000   0.2500000), wk =   0.0312500
        k(   82) = (   0.2500000   0.0000000  -0.2500000), wk =   0.0000000
        k(   83) = (  -0.3750000   0.0000000  -0.3750000), wk =   0.0156250
        k(   84) = (  -0.3750000  -0.5000000  -0.8750000), wk =   0.0000000
        k(   85) = (   0.5000000   0.8750000   0.5000000), wk =   0.0625000
        k(   86) = (   0.5000000   0.3750000   0.0000000), wk =   0.0000000
        k(   87) = (   0.3750000   0.7500000   0.3750000), wk =   0.0312500
        k(   88) = (   0.3750000   0.2500000  -0.1250000), wk =   0.0000000
        k(   89) = (   0.5000000   0.0000000   0.5000000), wk =   0.0078125
        k(   90) = (   0.5000000  -0.5000000   0.0000000), wk =   0.0000000
        k(   91) = (  -0.3750000  -0.1250000  -0.2500000), wk =   0.0312500
        k(   92) = (  -0.3750000  -0.6250000  -0.7500000), wk =   0.0000000
        k(   93) = (   0.2500000   0.1250000  -0.1250000), wk =   0.0312500
        k(   94) = (   0.2500000  -0.3750000  -0.6250000), wk =   0.0000000
        k(   95) = (   0.5000000   0.7500000   0.6250000), wk =   0.0625000
        k(   96) = (   0.5000000   0.2500000   0.1250000), wk =   0.0000000
        k(   97) = (  -0.6250000   0.1250000  -0.1250000), wk =   0.0625000
        k(   98) = (  -0.6250000  -0.3750000  -0.6250000), wk =   0.0000000
        k(   99) = (  -0.5000000   0.1250000  -0.1250000), wk =   0.0312500
        k(  100) = (  -0.5000000  -0.3750000  -0.6250000), wk =   0.0000000
        k(  101) = (   0.5000000   0.8750000   0.6250000), wk =   0.0312500
        k(  102) = (   0.5000000   0.3750000   0.1250000), wk =   0.0000000
        k(  103) = (  -0.6250000   0.2500000  -0.1250000), wk =   0.0312500
        k(  104) = (  -0.6250000  -0.2500000  -0.6250000), wk =   0.0000000
        k(  105) = (   0.3750000   0.7500000   0.5000000), wk =   0.0625000
        k(  106) = (   0.3750000   0.2500000   0.0000000), wk =   0.0000000
        k(  107) = (  -0.5000000   0.2500000  -0.1250000), wk =   0.0625000
        k(  108) = (  -0.5000000  -0.2500000  -0.6250000), wk =   0.0000000
        k(  109) = (   0.2500000   0.6250000   0.3750000), wk =   0.0312500
        k(  110) = (   0.2500000   0.1250000  -0.1250000), wk =   0.0000000
        k(  111) = (  -0.3750000   0.2500000  -0.1250000), wk =   0.0312500
        k(  112) = (  -0.3750000  -0.2500000  -0.6250000), wk =   0.0000000
        k(  113) = (   0.3750000  -0.1250000   0.5000000), wk =   0.0156250
        k(  114) = (   0.3750000  -0.6250000   0.0000000), wk =   0.0000000
        k(  115) = (  -0.5000000  -0.6250000  -0.1250000), wk =   0.0156250
        k(  116) = (  -0.5000000  -1.1250000  -0.6250000), wk =   0.0000000
        k(  117) = (  -0.5000000  -0.7500000  -0.2500000), wk =   0.0078125
        k(  118) = (  -0.5000000  -1.2500000  -0.7500000), wk =   0.0000000

     PseudoPot. # 1 for Si read from file:
     ../pseudo/Si_DOJO_PBEsol.upf
     MD5 check sum: 634e5fb0bdd2c4a07ca8312dc9ca950d
     Pseudo is Norm-conserving + core correction, Zval =  4.0
     Generated using ONCVPSP code by D. R. Hamann
     Using radial grid of 1528 points,  6 beta functions with: 
                l(1) =   0
                l(2) =   0
                l(3) =   1
                l(4) =   1
                l(5) =   2
                l(6) =   2


     Atomic displacements:
     There are    3 irreducible representations

     Representation     1      2 modes -  To be done
     Irreps are as follows:

           mode #   1                           mode #   2
           (  -0.14603   0.00000   )            (  -0.69186  -0.00000   ) 
           (  -0.00000   0.00000   )            (  -0.00000  -0.00000   ) 
           (  -0.69186   0.00000   )            (   0.14603  -0.00000   ) 
           (   0.69186  -0.00000   )            (  -0.14603   0.00000   ) 
           (   0.00000   0.00000   )            (  -0.00000   0.00000   ) 
           (   0.14603  -0.00000   )            (   0.69186   0.00000   ) 

     Representation     2      2 modes -  To be done
     Irreps are as follows:

           mode #   3                           mode #   4
           (   0.00000  -0.00000   )            (   0.00000   0.00000   ) 
           (  -0.71372   0.00000   )            (  -0.70043  -0.00000   ) 
           (   0.00000   0.00000   )            (  -0.00000   0.00000   ) 
           (  -0.00000  -0.00000   )            (   0.00000   0.00000   ) 
           (   0.70043   0.00000   )            (  -0.71372  -0.00000   ) 
           (  -0.00000   0.00000   )            (  -0.00000  -0.00000   ) 

     Representation     3      2 modes -  To be done
     Irreps are as follows:

           mode #   5                           mode #   6
           (  -0.00000   0.00000   )            (  -0.70711  -0.00000   ) 
           (  -0.00000   0.00000   )            (   0.00000  -0.00000   ) 
           (  -0.70711   0.00000   )            (  -0.00000   0.00000   ) 
           (  -0.70711   0.00000   )            (   0.00000   0.00000   ) 
           (  -0.00000   0.00000   )            (   0.00000  -0.00000   ) 
           (   0.00000   0.00000   )            (  -0.70711  -0.00000   ) 



     Alpha used in Ewald sum =   2.5000
     PHONON       :   2m11.92s CPU   2m14.35s WALL



     Representation #   1 modes #   1   2

     Self-consistent Calculation

      iter #   1 total cpu time :   137.5 secs   av.it.:   6.2
      thresh= 1.000E-02 alpha_mix =  0.700 |ddv_scf|^2 =  5.606E-07

      iter #   2 total cpu time :   142.3 secs   av.it.:  10.7
      thresh= 7.488E-05 alpha_mix =  0.700 |ddv_scf|^2 =  1.567E-07

      iter #   3 total cpu time :   146.6 secs   av.it.:  10.5
      thresh= 3.959E-05 alpha_mix =  0.700 |ddv_scf|^2 =  1.666E-10

      iter #   4 total cpu time :   151.1 secs   av.it.:  10.5
      thresh= 1.291E-06 alpha_mix =  0.700 |ddv_scf|^2 =  1.428E-13

      iter #   5 total cpu time :   155.4 secs   av.it.:  10.4
      thresh= 3.779E-08 alpha_mix =  0.700 |ddv_scf|^2 =  7.610E-15

     End of self-consistent calculation

     Convergence has been achieved 


     Representation #   2 modes #   3   4

     Self-consistent Calculation

      iter #   1 total cpu time :   158.6 secs   av.it.:   6.3
      thresh= 1.000E-02 alpha_mix =  0.700 |ddv_scf|^2 =  3.034E-06

      iter #   2 total cpu time :   162.9 secs   av.it.:  10.4
      thresh= 1.742E-04 alpha_mix =  0.700 |ddv_scf|^2 =  4.307E-06

      iter #   3 total cpu time :   167.0 secs   av.it.:   9.7
      thresh= 2.075E-04 alpha_mix =  0.700 |ddv_scf|^2 =  7.172E-10

      iter #   4 total cpu time :   171.6 secs   av.it.:  10.3
      thresh= 2.678E-06 alpha_mix =  0.700 |ddv_scf|^2 =  3.652E-11

      iter #   5 total cpu time :   175.9 secs   av.it.:  10.3
      thresh= 6.043E-07 alpha_mix =  0.700 |ddv_scf|^2 =  3.465E-13

      iter #   6 total cpu time :   180.1 secs   av.it.:  10.2
      thresh= 5.887E-08 alpha_mix =  0.700 |ddv_scf|^2 =  4.529E-15

     End of self-consistent calculation

     Convergence has been achieved 


     Representation #   3 modes #   5   6

     Self-consistent Calculation

      iter #   1 total cpu time :   182.9 secs   av.it.:   5.3
      thresh= 1.000E-02 alpha_mix =  0.700 |ddv_scf|^2 =  4.716E-09

      iter #   2 total cpu time :   187.3 secs   av.it.:  10.5
      thresh= 6.868E-06 alpha_mix =  0.700 |ddv_scf|^2 =  2.661E-10

      iter #   3 total cpu time :   191.7 secs   av.it.:  10.6
      thresh= 1.631E-06 alpha_mix =  0.700 |ddv_scf|^2 =  1.736E-12

      iter #   4 total cpu time :   196.0 secs   av.it.:  10.4
      thresh= 1.317E-07 alpha_mix =  0.700 |ddv_scf|^2 =  3.167E-14

     End of self-consistent calculation

     Convergence has been achieved 

     Number of q in the star =    3
     List of q in the star:
          1   0.000000000  -1.000000000   0.000000000
          2  -1.000000000   0.000000000   0.000000000
          3   0.000000000   0.000000000   1.000000000

     Diagonalizing the dynamical matrix

     q = (    0.000000000  -1.000000000   0.000000000 ) 

 **************************************************************************
     freq (    1) =       4.017584 [THz] =     134.012184 [cm-1]
     freq (    2) =       4.017584 [THz] =     134.012184 [cm-1]
     freq (    3) =      12.132251 [THz] =     404.688349 [cm-1]
     freq (    4) =      12.132251 [THz] =     404.688349 [cm-1]
     freq (    5) =      13.732203 [THz] =     458.056990 [cm-1]
     freq (    6) =      13.732203 [THz] =     458.056990 [cm-1]
 **************************************************************************

     init_run     :      0.11s CPU      0.12s WALL (       2 calls)
     electrons    :     10.07s CPU     10.22s WALL (       2 calls)

     Called by init_run:
     wfcinit      :      0.00s CPU      0.00s WALL (       2 calls)
     wfcinit:atom :      0.03s CPU      0.03s WALL (     248 calls)
     wfcinit:wfcr :      1.29s CPU      1.31s WALL (     248 calls)
     potinit      :      0.02s CPU      0.02s WALL (       2 calls)
     hinit0       :      0.05s CPU      0.05s WALL (       2 calls)

     Called by electrons:
     c_bands      :     10.07s CPU     10.21s WALL (       2 calls)
     v_of_rho     :      0.02s CPU      0.03s WALL (       3 calls)
     v_h          :      0.00s CPU      0.00s WALL (       3 calls)
     v_xc         :      0.05s CPU      0.05s WALL (       6 calls)

     Called by c_bands:
     init_us_2    :      1.06s CPU      1.13s WALL (    4475 calls)
     init_us_2:cp :      1.06s CPU      1.12s WALL (    4475 calls)
     cegterg      :      8.40s CPU      8.44s WALL (     248 calls)

     Called by sum_band:

     Called by *egterg:
     cdiaghg      :      0.07s CPU      0.07s WALL (    3326 calls)
     cegterg:over :      0.50s CPU      0.50s WALL (    3078 calls)
     cegterg:upda :      0.27s CPU      0.27s WALL (    3078 calls)
     cegterg:last :      0.17s CPU      0.17s WALL (     994 calls)
     h_psi        :    136.69s CPU    137.55s WALL (   61200 calls)
     g_psi        :      0.03s CPU      0.03s WALL (    3078 calls)

     Called by h_psi:
     h_psi:calbec :     16.33s CPU     16.39s WALL (   61200 calls)
     vloc_psi     :    108.01s CPU    108.76s WALL (   61200 calls)
     add_vuspsi   :     11.89s CPU     11.94s WALL (   61200 calls)

     General routines
     calbec       :     32.94s CPU     33.12s WALL (  124115 calls)
     fft          :      1.17s CPU      1.19s WALL (    3288 calls)
     ffts         :      0.37s CPU      0.39s WALL (    1146 calls)
     fftw         :    111.89s CPU    112.99s WALL (  523308 calls)
     davcio       :      1.01s CPU      2.15s WALL (   24431 calls)


     PHONON       :   3m12.79s CPU   3m16.20s WALL

     INITIALIZATION: 
     phq_setup    :      0.07s CPU      0.09s WALL (       3 calls)
     phq_init     :      2.18s CPU      2.20s WALL (       3 calls)

     phq_init     :      2.18s CPU      2.20s WALL (       3 calls)
     set_drhoc    :      1.19s CPU      1.19s WALL (       9 calls)
     init_vloc    :      0.00s CPU      0.00s WALL (       3 calls)
     init_us_1    :      0.02s CPU      0.02s WALL (       3 calls)
     init_us_2    :      1.06s CPU      1.13s WALL (    4475 calls)

     DYNAMICAL MATRIX:
     dynmat0      :      1.17s CPU      1.18s WALL (       3 calls)
     dynmat_us    :      0.34s CPU      0.35s WALL (       3 calls)
     d2ionq       :      0.01s CPU      0.01s WALL (       3 calls)
     dynmatcc     :      0.82s CPU      0.82s WALL (       3 calls)
     phqscf       :    159.39s CPU    162.12s WALL (       3 calls)
     dynmatrix    :      0.00s CPU      0.01s WALL (       3 calls)

     phqscf       :    159.39s CPU    162.12s WALL (       3 calls)
     solve_linter :    158.12s CPU    160.78s WALL (       9 calls)
     sth_kernel   :    167.35s CPU    169.58s WALL (      51 calls)
     h_prec       :      0.09s CPU      0.09s WALL (    2844 calls)
     apply_dpot_b :      7.73s CPU      7.96s WALL (    4041 calls)
     ortho        :      0.34s CPU      0.35s WALL (    5133 calls)
     cgsolve      :    153.24s CPU    154.23s WALL (    5133 calls)
     incdrhoscf   :      9.26s CPU      9.54s WALL (    5046 calls)
                                        0.00s GPU  (    5046 calls)
     dv_of_drho   :      0.52s CPU      0.53s WALL (     102 calls)
     mix_pot      :      0.11s CPU      0.41s WALL (      51 calls)
     drhodv       :      1.25s CPU      1.27s WALL (       9 calls)
     symdvscf     :      0.83s CPU      0.83s WALL (      46 calls)

     dvqpsi_us    :      4.51s CPU      4.58s WALL (    1092 calls)
                                        0.00s GPU  (    1092 calls)
     dvqpsi_us_on :      1.14s CPU      1.15s WALL (    1092 calls)

     add_vuspsi   :     11.89s CPU     11.94s WALL (   61200 calls)


      General routines
     calbec       :     32.94s CPU     33.12s WALL (  124115 calls)
     fft          :      1.17s CPU      1.19s WALL (    3288 calls)
     ffts         :      0.37s CPU      0.39s WALL (    1146 calls)
     fftw         :    111.89s CPU    112.99s WALL (  523308 calls)
     davcio       :      1.01s CPU      2.15s WALL (   24431 calls)
     write_rec    :      0.04s CPU      0.23s WALL (      60 calls)

      Additional routines
     ch_psi       :    148.17s CPU    149.11s WALL (   57626 calls)
     last         :     19.45s CPU     19.57s WALL (   57626 calls)
     Hesh         :      0.33s CPU      0.33s WALL (   57626 calls)
     ch_psi_all_k :     19.02s CPU     19.14s WALL (   57626 calls)
                                        0.00s GPU  (   57626 calls)
     ch_psi_calbe :     15.24s CPU     15.33s WALL (   57626 calls)
                                        0.00s GPU  (   57626 calls)
     h_psi_bgrp   :    136.76s CPU    137.62s WALL (   61200 calls)
     h_psi        :    136.69s CPU    137.55s WALL (   61200 calls)
     h_psi:pot    :    136.37s CPU    137.23s WALL (   61200 calls)
     h_psi:calbec :     16.33s CPU     16.39s WALL (   61200 calls)
     s_psi_bgrp   :      0.39s CPU      0.40s WALL (  120385 calls)


     PHONON       :   3m12.79s CPU   3m16.20s WALL


   This run was terminated on:  20:38:30  10Sep2023            

=------------------------------------------------------------------------------=
   JOB DONE.
=------------------------------------------------------------------------------=
